    2716
 i =        0, time =        0.000, E =      -651.7212108847
  C        22.7980961300       19.0815984900       50.9904159300
  C        25.8013362700       22.4548737800       52.1877144800
  C        24.5931287300       21.7583660800       52.1862722200
  C        21.7912047300       23.3665270800       52.1932934400
  C        21.7936114200       24.7622779500       52.2012613600
  C        24.6008488500       26.3789865200       52.2039634900
  C        25.8088831900       25.6812275300       52.1971376100
  C        26.5276675000       25.5330324700       51.0007373800
  C        26.5282860100       22.6027679400       50.9960681100
  C        27.7990484600       23.3633241000       50.9970268900
  C        27.7983352400       24.7727473500       50.9947625100
  C        26.0388118400       26.0987891000       49.8142804100
  C        24.8311349700       26.7985451800       49.8212750600
  C        24.1066630400       26.9356161800       51.0144344100
  C        22.8139099700       27.6575548400       51.0130827200
  C        21.5952641300       26.9503030300       51.0089667900
  C        21.5828149500       25.4693190200       51.0075611100
  C        21.5796779400       22.6726509600       50.9920475300
  C        21.3702429300       23.3795852900       49.7993107900
  C        21.3715716700       24.7753479200       49.8075584500
  C        22.8105520400       20.4837253400       50.9905562100
  C        21.5921633400       21.1918420000       50.9841221700
  C        24.8370431000       21.3393130200       49.8049106800
  C        26.0461738600       22.0370245700       49.8066247100
  C        24.1049104500       21.2029202000       50.9935157400
  C        29.0187726300       22.6709576400       50.9907724600
  C        30.2277112700       23.3713273400       51.0106281300
  C        30.2266499000       24.7690501800       51.0047764700
  C        29.0167306000       25.4671551900       50.9816636500
  C        22.8027692800       29.0595886700       51.0082990700
  C        21.5908975600       29.7551178100       51.0273116200
  C        20.3823242700       29.0540154500       51.0192738600
  C        20.3840941400       27.6565644500       50.9960817600
  C        20.3802780900       20.4867976800       50.9686781700
  C        20.3773729800       19.0896617700       50.9974224200
  C        21.5854314700       18.3874816400       51.0113211600
  H        19.4387838000       29.5958676100       51.0270614300
  H        21.5893552300       30.8432217800       51.0433640400
  H        19.4388221700       27.1173149600       50.9659344300
  H        19.4329731700       18.5490341500       51.0025058700
  H        21.5827453500       17.2995042100       51.0328143600
  H        23.7362638300       18.5294124000       50.9736109900
  H        29.0261595000       21.5820730300       50.9666175400
  H        31.1703408700       22.8276538200       51.0295339500
  H        31.1678600100       25.3153264900       51.0167214800
  H        23.7411691300       29.6108955600       50.9904104700
  H        19.4359438100       21.0277002400       50.9317856900
  H        29.0211175500       26.5557969800       50.9492167000
  H        24.0375597600       26.4846246100       53.1295237900
  H        26.1919013900       25.2441755700       53.1176978200
  H        26.1783923900       22.8916439600       53.1108023100
  H        24.0228243500       21.6537339900       53.1077899500
  H        21.9619399500       22.8147385300       53.1162533500
  H        21.9660431400       25.3018042700       53.1308958000
  H        26.5993651200       25.9845887100       48.8880836000
  H        24.4445800200       27.2293701900       48.8994153700
  H        21.2164555300       22.8378792500       48.8676123000
  H        21.2168431200       25.3278999100       48.8824163700
  H        24.4550123700       20.9109478100       48.8796901200
  H        26.6131354500       22.1488082100       48.8839000000
  H        39.4508887150       38.9305088220       47.0839005710
  H        39.4508887150       14.8605091270       47.0839005710
  H        15.3808890200       38.9305088220       47.0839005710
  H        15.3808890200       14.8605091270       47.0839005710
  H        26.5419885440        5.5168397590       46.7246800660
  H        26.5419885440       29.5868408890       46.7246800660
  H         2.4719901050        5.5168397590       46.7246800660
  H         2.4719901050       29.5868408890       46.7246800660
  H         8.3406898270        9.2943298760       46.5970194340
  H         8.3406898270       33.3643288530       46.5970194340
  H        32.4106888050        9.2943298760       46.5970194340
  H        32.4106888050       33.3643288530       46.5970194340
  H         3.9426699230        7.4641095140       46.4262211320
  H         3.9426699230       31.5341084920       46.4262211320
  H        28.0126685420        7.4641095140       46.4262211320
  H        28.0126685420       31.5341084920       46.4262211320
  C        39.6288497610       39.4531382990       46.2119889260
  C        39.6288497610       15.3831400390       46.2119889260
  C        15.5588500660       39.4531382990       46.2119889260
  C        15.5588500660       15.3831400390       46.2119889260
  H         6.1715498120        8.3017395970       46.1710709330
  H         6.1715498120       32.3717400090       46.1710709330
  H        30.2415502240        8.3017395970       46.1710709330
  H        30.2415502240       32.3717400090       46.1710709330
  C        26.9102603930        5.7310699690       45.7137423750
  C        26.9102603930       29.8010707400       45.7137423750
  C         2.8402599810        5.7310699690       45.7137423750
  C         2.8402599810       29.8010707400       45.7137423750
  H        41.6218407360       37.5203208310       45.6680095200
  H        41.6218407360       13.4503197020       45.6680095200
  H        17.5518396070       37.5203208310       45.6680095200
  H        17.5518396070       13.4503197020       45.6680095200
  C         7.9455097660        9.3656393980       45.6463509800
  C         7.9455097660       33.4356383760       45.6463509800
  C        32.0155080260        9.3656393980       45.6463509800
  C        32.0155080260       33.4356383760       45.6463509800
  C        40.9502882130       39.5470096590       45.5572885270
  C        40.9502882130       15.4770099640       45.5572885270
  C        16.8802885180       39.5470096590       45.5572885270
  C        16.8802885180       15.4770099640       45.5572885270
  C         3.6490098800        6.9056803720       45.5380290750
  C         3.6490098800       30.9756807850       45.5380290750
  C        27.7190088570        6.9056803720       45.5380290750
  C        27.7190088570       30.9756807850       45.5380290750
  C        38.5986492470       40.1944910580       45.4706376790
  C        38.5986492470       16.1244899280       45.4706376790
  C        14.5286495520       40.1944910580       45.4706376790
  C        14.5286495520       16.1244899280       45.4706376790
  H        37.6479789940       39.7993102800       45.3993284700
  H        37.6479789940       15.7293091500       45.3993284700
  H        13.5779793000       39.7993102800       45.3993284700
  H        13.5779793000       15.7293091500       45.3993284700
  C         6.7660799020        8.7783300720       45.3815793990
  C         6.7660799020       32.8483304840       45.3815793990
  C        30.8360803140        8.7783300720       45.3815793990
  C        30.8360803140       32.8483304840       45.3815793990
  H        25.1260991200        3.3458898900       45.3144925830
  H        25.1260991200       27.4158888680       45.3144925830
  H         1.0560999630        3.3458898900       45.3144925830
  H         1.0560999630       27.4158888680       45.3144925830
  C        41.8360677180       38.5312592810       45.2997392420
  C        41.8360677180       14.4612595860       45.2997392420
  C        17.7660694580       38.5312592810       45.2997392420
  C        17.7660694580       14.4612595860       45.2997392420
  C        41.2367199600       40.8612287820       45.0783014300
  C        41.2367199600       16.7912290880       45.0783014300
  C        17.1667188310       40.8612287820       45.0783014300
  C        17.1667188310       16.7912290880       45.0783014300
  C        38.8634201390       41.3739216400       44.8833328490
  C        38.8634201390       17.3039205100       44.8833328490
  C        14.7934190100       41.3739216400       44.8833328490
  C        14.7934190100       17.3039205100       44.8833328490
  C        40.2329979710       41.8842099670       44.7990810870
  C        40.2329979710       17.8142102720       44.7990810870
  C        16.1629997110       41.8842099670       44.7990810870
  C        16.1629997110       17.8142102720       44.7990810870
  H         9.2094898500       35.0489001170       44.7941076760
  H         9.2094898500       10.9788997050       44.7941076760
  H        33.2794902620       35.0489001170       44.7941076760
  H        33.2794902620       10.9788997050       44.7941076760
  C        25.9980109720        3.5238498600       44.7918587920
  C        25.9980109720       27.5938499140       44.7918587920
  C         1.9280100220        3.5238498600       44.7918587920
  C         1.9280100220       27.5938499140       44.7918587920
  C        26.6527088300        4.8452901050       44.6979898210
  C        26.6527088300       28.9152883650       44.6979898210
  C         2.5827100320        4.8452901050       44.6979898210
  C         2.5827100320       28.9152883650       44.6979898210
  C        42.5268794370       41.0152793880       44.6329975130
  C        42.5268794370       16.9452796930       44.6329975130
  C        18.4568797420       41.0152793880       44.6329975130
  C        18.4568797420       16.9452796930       44.6329975130
  C         8.6868596560       34.1769911340       44.6161496640
  C         8.6868596560       10.1069900050       44.6161496640
  C        32.7568607850       34.1769911340       44.6161496640
  C        32.7568607850       10.1069900050       44.6161496640
  C        43.0106777630       38.7069707420       44.4909882550
  C        43.0106777630       14.6369696130       44.4909882550
  C        18.9406795030       38.7069707420       44.4909882550
  C        18.9406795030       14.6369696130       44.4909882550
  H        26.8106703840       25.6129791470       44.4456893210
  H        26.8106703840        1.5429799900       44.4456893210
  H         2.7406699720       25.6129791470       44.4456893210
  H         2.7406699720        1.5429799900       44.4456893210
  H        38.0739308700       41.9684488600       44.4067364930
  H        38.0739308700       17.8984506000       44.4067364930
  H        14.0039297410       41.9684488600       44.4067364930
  H        14.0039297410       17.8984506000       44.4067364930
  C         4.0365398480        7.2643297980       44.2839908600
  C         4.0365398480       31.3343287750       44.2839908600
  C        28.1065399020        7.2643297980       44.2839908600
  C        28.1065399020       31.3343287750       44.2839908600
  C        40.6181187460       43.0901075960       44.2599165440
  C        40.6181187460       19.0201093350       44.2599165440
  C        16.5481204860       43.0901075960       44.2599165440
  C        16.5481204860       19.0201093350       44.2599165440
  C        42.9673589210       42.2837694000       44.2021465300
  C        42.9673589210       18.2137697060       44.2021465300
  C        18.8973592260       42.2837694000       44.2021465300
  C        18.8973592260       18.2137697060       44.2021465300
  H        43.5691083390       37.8187809680       44.1973316670
  H        43.5691083390       13.7487798380       44.1973316670
  H        19.4991086440       37.8187809680       44.1973316670
  H        19.4991086440       13.7487798380       44.1973316670
  C        43.3693286230       39.9610106190       44.1034585240
  C        43.3693286230       15.8910094900       44.1034585240
  C        19.2993289280       39.9610106190       44.1034585240
  C        19.2993289280       15.8910094900       44.1034585240
  C        42.0550980220       43.2874885210       44.0505117180
  C        42.0550980220       19.2174888260       44.0505117180
  C        26.7393608610       26.5636494000       44.0505117180
  C        26.7393608610        2.4936498840       44.0505117180
  C         2.6693599110       26.5636494000       44.0505117180
  C         2.6693599110        2.4936498840       44.0505117180
  C        17.9850997620       43.2874885210       44.0505117180
  C        17.9850997620       19.2174888260       44.0505117180
  C         6.2557901400        8.6940804190       44.0120011570
  C         6.2557901400       32.7640801140       44.0120011570
  C        30.3257891170        8.6940804190       44.0120011570
  C        30.3257891170       32.7640801140       44.0120011570
  C         5.0498900010        8.1549197980       43.6268788580
  C         5.0498900010       32.2249202100       43.6268788580
  C        29.1198886200        8.1549197980       43.6268788580
  C        29.1198886200       32.2249202100       43.6268788580
  H        37.8187809680       44.1973305430       43.5691088440
  H        37.8187809680       20.1273308480       43.5691088440
  H        13.7487798380       44.1973305430       43.5691088440
  H        13.7487798380       20.1273308480       43.5691088440
  C         3.0617001950        5.1317200600       43.3837699890
  C         3.0617001950       29.2017201130       43.3837699890
  C        27.1317009660        5.1317200600       43.3837699890
  C        27.1317009660       29.2017201130       43.3837699890
  C        39.9610106190       44.1034591830       43.3693295720
  C        39.9610106190       20.0334609230       43.3693295720
  C        15.8910094900       44.1034591830       43.3693295720
  C        15.8910094900       20.0334609230       43.3693295720
  C         8.5929897300        9.4522892770       43.2947075370
  C         8.5929897300       33.5222875370       43.2947075370
  C        32.6629894250        9.4522892770       43.2947075370
  C        32.6629894250       33.5222875370       43.2947075370
  C        44.0505107430       42.0550980220       43.2874894140
  C        44.0505107430       17.9850997620       43.2874894140
  C        19.9805110480       42.0550980220       43.2874894140
  C        19.9805110480       17.9850997620       43.2874894140
  C         3.5069998580        6.4218798940       43.2297194000
  C         3.5069998580       30.4918795890       43.2297194000
  C        27.5769981180        6.4218798940       43.2297194000
  C        27.5769981180       30.4918795890       43.2297194000
  C        44.2599200570       40.6181187460       43.0901092290
  C        44.2599200570       16.5481204860       43.0901092290
  C        20.1899203630       40.6181187460       43.0901092290
  C        20.1899203630       16.5481204860       43.0901092290
  C        38.7069707420       44.4909902270       43.0106806760
  C        38.7069707420       20.4209890980       43.0106806760
  C        14.6369696130       44.4909902270       43.0106806760
  C        14.6369696130       20.4209890980       43.0106806760
  C         7.2787698900        8.9733000110       43.0082815890
  C         7.2787698900       33.0432982710       43.0082815890
  C        31.3487703020        8.9733000110       43.0082815890
  C        31.3487703020       33.0432982710       43.0082815890
  C        42.2837694000       44.2021482110       42.9673594240
  C        42.2837694000       20.1321499510       42.9673594240
  C        18.2137697060       44.2021482110       42.9673594240
  C        18.2137697060       20.1321499510       42.9673594240
  C         3.2566701340       26.8284202920       42.8710788490
  C         3.2566701340        2.7584198800       42.8710788490
  C        27.3266687530       26.8284202920       42.8710788490
  C        27.3266687530        2.7584198800       42.8710788490
  H        34.6896782530        9.5630102810       42.6231592890
  H        34.6896782530       33.6330106930       42.6231592890
  H        10.6196799930        9.5630102810       42.6231592890
  H        10.6196799930       33.6330106930       42.6231592890
  C        41.0152793880       44.6330009670       42.5268787150
  C        41.0152793880       20.5629998370       42.5268787150
  C        16.9452796930       44.6330009670       42.5268787150
  C        16.9452796930       20.5629998370       42.5268787150
  C         9.6087393920        9.1947398660       42.4089312550
  C         9.6087393920       33.2647388440       42.4089312550
  C        33.6787398040        9.1947398660       42.4089312550
  C        33.6787398040       33.2647388440       42.4089312550
  C         3.3409197870        4.1280099060       42.3607909680
  C         3.3409197870       28.1980096010       42.3607909680
  C        27.4109191230        4.1280099060       42.3607909680
  C        27.4109191230       28.1980096010       42.3607909680
  C        44.2021482110       42.9673589210       42.2837698460
  C        44.2021482110       18.8973592260       42.2837698460
  C        20.1321499510       42.9673589210       42.2837698460
  C        20.1321499510       18.8973592260       42.2837698460
  H         3.7332598910       26.0389310230       42.2765517230
  H         3.7332598910        1.9689298930       42.2765517230
  H        27.8032592280       26.0389310230       42.2765517230
  H        27.8032592280        1.9689298930       42.2765517230
  C         4.8525097930        7.9455097660       42.1899008750
  C         4.8525097930       32.0155080260       42.1899008750
  C        28.9225105640        7.9455097660       42.1899008750
  C        28.9225105640       32.0155080260       42.1899008750
  C        43.2874885210       44.0505107430       42.0551013950
  C        43.2874885210       19.9805110480       42.0551013950
  C        19.2174888260       44.0505107430       42.0551013950
  C        19.2174888260       19.9805110480       42.0551013950
  H        44.4067398570       38.0739308700       41.9684505460
  H        44.4067398570       14.0039297410       41.9684505460
  H        20.3367401620       38.0739308700       41.9684505460
  H        20.3367401620       14.0039297410       41.9684505460
  C         3.9378501030        6.8623600960       41.9612324240
  C         3.9378501030       30.9323590730       41.9612324240
  C        28.0078508740        6.8623600960       41.9612324240
  C        28.0078508740       30.9323590730       41.9612324240
  C        44.7990799610       40.2329979710       41.8842071290
  C        44.7990799610       16.1629997110       41.8842071290
  C        20.7290802660       40.2329979710       41.8842071290
  C        20.7290802660       16.1629997110       41.8842071290
  C        38.5312592810       45.2997386910       41.8360710140
  C        38.5312592810       21.2297404310       41.8360710140
  C        14.4612595860       45.2997386910       41.8360710140
  C        14.4612595860       21.2297404310       41.8360710140
  C         7.1247200010        8.5279999900       41.7181193830
  C         7.1247200010       32.5980011190       41.7181193830
  C        31.1947196960        8.5279999900       41.7181193830
  C        31.1947196960       32.5980011190       41.7181193830
  H        37.5203208310       45.6680105400       41.6218429800
  H        37.5203208310       21.5980094110       41.6218429800
  H        13.4503197020       45.6680105400       41.6218429800
  H        13.4503197020       21.5980094110       41.6218429800
  C        44.8833303320       38.8634201390       41.3739192490
  C        44.8833303320       14.7934190100       41.3739192490
  C        20.8133292020       38.8634201390       41.3739192490
  C        20.8133292020       14.7934190100       41.3739192490
  C         5.8562296310        8.0971501030       41.2776428460
  C         5.8562296310       32.1671483630       41.2776428460
  C        29.9262296840        8.0971501030       41.2776428460
  C        29.9262296840       32.1671483630       41.2776428460
  C        40.8612287820       45.0782981190       41.2367206810
  C        40.8612287820       21.0082998590       41.2367206810
  C        16.7912290880       45.0782981190       41.2367206810
  C        16.7912290880       21.0082998590       41.2367206810
  C         9.4330300820        8.3859899680       41.2343215940
  C         9.4330300820       32.4559903800       41.2343215940
  C        33.5030283420        8.3859899680       41.2343215940
  C        33.5030283420       32.4559903800       41.2343215940
  C         3.8800800500        4.5131299640       41.1548888680
  C         3.8800800500       28.5831303760       41.1548888680
  C        27.9500790270        4.5131299640       41.1548888680
  C        27.9500790270       28.5831303760       41.1548888680
  C        44.6330009670       42.5268794370       41.0152828690
  C        44.6330009670       18.4568797420       41.0152828690
  C        20.5629998370       42.5268794370       41.0152828690
  C        20.5629998370       18.4568797420       41.0152828690
  C         4.0894897220        5.9500999140       40.9575128560
  C         4.0894897220       30.0200981740       40.9575128560
  C        28.1594883410        5.9500999140       40.9575128560
  C        28.1594883410       30.0200981740       40.9575128560
  C        39.5470096590       45.5572873850       40.9502905610
  C        39.5470096590       21.4872891250       40.9502905610
  C        15.4770099640       45.5572873850       40.9502905610
  C        15.4770099640       21.4872891250       40.9502905610
  C         8.1789902050        7.9984596410       40.8756726980
  C         8.1789902050       32.0684593350       40.8756726980
  C        32.2489884650        7.9984596410       40.8756726980
  C        32.2489884650       32.0684593350       40.8756726980
  C        45.0782981190       41.2367199600       40.8612281080
  C        45.0782981190       17.1667188310       40.8612281080
  C        21.0082998590       41.2367199600       40.8612281080
  C        21.0082998590       17.1667188310       40.8612281080
  H        35.6043408120        3.5455099980       40.7071816920
  H        35.6043408120       27.6155107690       40.7071816920
  H        11.5343396830        3.5455099980       40.7071816920
  H        11.5343396830       27.6155107690       40.7071816920
  H        34.3912209860        8.0923295660       40.6758934260
  H        34.3912209860       32.1623278260       40.6758934260
  H        10.3212205740        8.0923295660       40.6758934260
  H        10.3212205740       32.1623278260       40.6758934260
  C        43.0901075960       44.2599200570       40.6181192400
  C        43.0901075960       20.1899203630       40.6181192400
  C        19.0201093350       44.2599200570       40.6181192400
  C        19.0201093350       20.1899203630       40.6181192400
  H        37.5516084150       26.1448307720       40.4087185860
  H        37.5516084150        2.0748300010       40.4087185860
  H        13.4816101550       26.1448307720       40.4087185860
  H        13.4816101550        2.0748300010       40.4087185860
  C        41.8842099670       44.7990799610       40.2330011130
  C        41.8842099670       20.7290802660       40.2330011130
  C        17.8142102720       44.7990799610       40.2330011130
  C        17.8142102720       20.7290802660       40.2330011130
  C         6.0848999330        7.1824896960       40.1944905520
  C         6.0848999330       31.2524886730       40.1944905520
  C        45.4706382230       38.5986492470       40.1944905520
  C        45.4706382230       14.5286495520       40.1944905520
  C        30.1549010630        7.1824896960       40.1944905520
  C        30.1549010630       31.2524886730       40.1944905520
  C        21.4006399630       38.5986492470       40.1944905520
  C        21.4006399630       14.5286495520       40.1944905520
  H        38.3892399330       47.9859487840       40.1535683870
  H        38.3892399330       23.9159505240       40.1535683870
  H        14.3192388040       47.9859487840       40.1535683870
  H        14.3192388040       23.9159505240       40.1535683870
  C         4.7706700500        3.8560100010       40.1415395740
  C         4.7706700500       27.9260107720       40.1415395740
  C        28.8406704620        3.8560100010       40.1415395740
  C        28.8406704620       27.9260107720       40.1415395740
  H         4.5708899750       25.7837811210       40.0476664300
  H         4.5708899750        1.7137799910       40.0476664300
  H        28.6408907450       25.7837811210       40.0476664300
  H        28.6408907450        1.7137799910       40.0476664300
  C         5.1726397520        6.1787698580       40.0428515670
  C         5.1726397520       30.2487695530       40.0428515670
  C        29.2426401640        6.1787698580       40.0428515670
  C        29.2426401640       30.2487695530       40.0428515670
  C         7.5218799260        6.9851094880       39.9850815530
  C         7.5218799260       31.0551077480       39.9850815530
  C        31.5918803380        6.9851094880       39.9850815530
  C        31.5918803380       31.0551077480       39.9850815530
  C        44.1034591830       43.3693286230       39.9610114100
  C        44.1034591830       19.2993289280       39.9610114100
  C        20.0334609230       43.3693286230       39.9610114100
  C        20.0334609230       19.2993289280       39.9610114100
  H        34.1360682140        5.8634500350       39.8382616040
  H        34.1360682140       29.9334490130       39.8382616040
  H        10.0660692370        5.8634500350       39.8382616040
  H        10.0660692370       29.9334490130       39.8382616040
  C         5.1293201920       26.6719708950       39.7540098430
  C         5.1293201920        2.6019699450       39.7540098430
  C        29.1993213220       26.6719708950       39.7540098430
  C        29.1993213220        2.6019699450       39.7540098430
  C        35.8185706640        3.1772399430       39.6962398290
  C        35.8185706640       27.2472389200       39.6962398290
  C        11.7485702520        3.1772399430       39.6962398290
  C        11.7485702520       27.2472389200       39.6962398290
  H        43.5378207550       36.6056582720       39.6505069730
  H        43.5378207550       12.5356600120       39.6505069730
  H        19.4678196260       36.6056582720       39.6505069730
  H        19.4678196260       12.5356600120       39.6505069730
  C        39.4531382990       46.2119909820       39.6288484330
  C        39.4531382990       22.1419898520       39.6288484330
  C        15.3831400390       46.2119909820       39.6288484330
  C        15.3831400390       22.1419898520       39.6288484330
  C         5.6131199530        4.9102802050       39.6120005850
  C         5.6131199530       28.9802795410       39.6120005850
  C        29.6831196480        4.9102802050       39.6120005850
  C        29.6831196480       28.9802795410       39.6120005850
  C        45.5572873850       40.9502882130       39.5470082760
  C        45.5572873850       16.8802885180       39.5470082760
  C        21.4872891250       40.9502882130       39.5470082760
  C        21.4872891250       16.8802885180       39.5470082760
  C        45.5645095830       37.2772107950       39.5397901540
  C        45.5645095830       13.2072096660       39.5397901540
  C        21.4945098880       37.2772107950       39.5397901540
  C        21.4945098880       13.2072096660       39.5397901540
  C        36.9931778390       26.4384904560       39.5205307010
  C        36.9931778390        2.3684898650       39.5205307010
  C        12.9231795790       26.4384904560       39.5205307010
  C        12.9231795790        2.3684898650       39.5205307010
  C        46.2119909820       39.6288497610       39.4531393050
  C        46.2119909820       15.5588500660       39.4531393050
  C        22.1419898520       39.6288497610       39.4531393050
  C        22.1419898520       15.5588500660       39.4531393050
  C         7.9069999840        5.7792100660       39.4459170100
  C         7.9069999840       29.8492101200       39.4459170100
  C        31.9770011140        5.7792100660       39.4459170100
  C        31.9770011140       29.8492101200       39.4459170100
  C        38.8658304080       47.3914215640       39.3640768530
  C        38.8658304080       23.3214204340       39.3640768530
  C        14.7958292780       47.3914215640       39.3640768530
  C        14.7958292780       23.3214204340       39.3640768530
  C         9.2765799680        5.2689199460       39.3616694210
  C         9.2765799680       29.3389189230       39.3616694210
  C        33.3465789450        5.2689199460       39.3616694210
  C        33.3465789450       29.3389189230       39.3616694210
  C        44.5487592040       36.3914312900       39.2822408680
  C        44.5487592040       12.3214301600       39.2822408680
  C        20.4787595100       36.3914312900       39.2822408680
  C        20.4787595100       12.3214301600       39.2822408680
  C         6.9032794290        4.7562299580       39.1666966680
  C         6.9032794290       28.8262289350       39.1666966680
  C        30.9732791240        4.7562299580       39.1666966680
  C        30.9732791240       28.8262289350       39.1666966680
  C        46.8787287060       36.9907790480       39.0607988830
  C        46.8787287060       12.9207793530       39.0607988830
  C        22.8087290110       36.9907790480       39.0607988830
  C        22.8087290110       12.9207793530       39.0607988830