    2936   
 i =        6, E =      -576.5522445873
  C        18.9884579086       16.7625785267       15.8948326718
  C        13.9898729678       16.8190658654       15.9805464928
  C        15.2347352832       16.0997596584       15.9748971959
  C        15.2340443632       14.6554451644       15.9862763248
  C        13.9880496017       13.9376058562       15.9877870088
  C        12.7368443552       14.6607998201       15.9881887479
  C        12.7377457062       16.0977891457       15.9885656847
  C        11.5044473495       16.8130036021       15.9845033892
  C        13.9879423544       18.2439705812       15.9624964455
  C        12.7282142824       18.9841924344       15.9763217012
  C        11.4932876947       18.2720826358       15.9827477383
  C        10.3034913850       16.0693845400       15.9769825612
  C        10.3025446339       14.6927847784       15.9768314695
  C        11.5025072471       13.9476231043       15.9825131606
  C        11.4892009572       12.4888502572       15.9674383305
  C        12.7231993506       11.7745303222       15.9656853050
  C        13.9840745540       12.5124263508       15.9809984816
  C        16.4693302204       13.9434456429       15.9843147635
  C        16.4228026705       12.5315453075       15.9768660043
  C        15.2292099927       11.8447079595       15.9739842666
  C        17.7413302949       16.0878384145       15.9384088475
  C        17.7408479512       14.6630958297       15.9729995257
  C        16.4255489291       18.2214070254       15.8986939864
  C        15.2328830937       18.9096546261       15.9094861379
  C        16.4702290108       16.8103059219       15.9410994743
  C        12.6897015780       20.4022379206       15.9724432022
  C        11.4929872708       21.0994199931       15.9713202518
  C        10.2752326291       20.3963909575       15.9712998395
  C        10.2827920185       19.0121615838       15.9776050002
  C        10.2776040970       11.7509713487       15.9326708330
  C        10.2691335176       10.3669743978       15.8956341854
  C        11.4862243889        9.6627819689       15.8932422274
  C        12.6837887296       10.3572885533       15.9281277153
  C        18.9881682994       13.9867726231       15.9774982651
  C        20.1912226021       14.6716371386       15.9375149854
  C        20.1911121178       16.0763232692       15.8921346195
  H        11.4914031276        8.5773099718       15.8536200622
  H         9.3250757907        9.8306955538       15.8576672519
  H        13.6059999194        9.7889692989       15.9173170226
  H        21.1285497468       14.1229819176       15.9324736370
  H        21.1282997989       16.6234554256       15.8471598818
  H        19.0168573983       17.8446039820       15.8530124696
  H        13.6125623097       20.9696231562       15.9597922053
  H        11.4995979704       22.1854852406       15.9556701223
  H         9.3315720156       20.9341239240       15.9550138096
  H         9.3272307153       12.2702965844       15.9242739165
  H        19.0162331042       12.9042767703       16.0054808691
  H         9.3317031736       18.4940884226       15.9668514369
  H        13.8698192076       15.7037772791       20.1028747571
  H        14.4482451210       15.2336513762       20.0875569124
  H         9.3481879469       16.5789966051       15.9593532678
  H         9.3465884744       14.1844690228       15.9592181275
  H        17.3410889661       11.9577194667       15.9569977184
  H        15.2657061032       10.7624442215       15.9540982055
  H        17.3438779765       18.7933365771       15.8498439934
  H        15.2695639201       19.9912218546       15.8656148757
 CU         0.0092276398       -0.0047599076       -5.6567123414
 CU         2.5569337241       -0.0043601091       -5.6569084367
 CU         5.1047188872       -0.0038118253       -5.6572559447
 CU         7.6525862627       -0.0031960854       -5.6577225626
 CU        10.2005311323       -0.0026466373       -5.6581846670
 CU        12.7485286289       -0.0023058274       -5.6584911513
 CU        15.2965395485       -0.0022593140       -5.6585499952
 CU        17.8445170201       -0.0024896024       -5.6583623656
 CU        20.3924219768       -0.0029062195       -5.6580059059
 CU        22.9402344771       -0.0034062384       -5.6575857653
 CU        25.4879504988       -0.0039116736       -5.6571924440
 CU        28.0355837301       -0.0043607089       -5.6569078896
 CU        30.5831599569       -0.0047075006       -5.6567647116
 CU        33.1307074681       -0.0049324587       -5.6567054861
 CU        35.6782523319       -0.0050327824       -5.6566607091
 CU        38.2258252582       -0.0049841081       -5.6566418429
 CU         1.2827110211        2.2015878426       -5.6572337445
 CU         3.8304438856        2.2020164659       -5.6576311623
 CU         6.3783257963        2.2025763009       -5.6581208533
 CU         8.9263349976        2.2031553316       -5.6586199346
 CU        11.4744336076        2.2036062994       -5.6589985994
 CU        14.0225663416        2.2038083682       -5.6591443038
 CU        16.5706730194        2.2037245322       -5.6590163239
 CU        19.1187048707        2.2034134276       -5.6586712008
 CU        21.6666272332        2.2029788103       -5.6582000024
 CU        24.2144174741        2.2025109044       -5.6576915436
 CU        26.7620734798        2.2020746440       -5.6572536587
 CU        29.3096135491        2.2017210110       -5.6569722131
 CU        31.8570691692        2.2014719868       -5.6568456213
 CU        34.4044793537        2.2013184376       -5.6568096406
 CU        36.9518886206        2.2012611467       -5.6568372597
 CU        39.4993557141        2.2013374662       -5.6569656204
 CU         0.0085811209        4.4077194261       -5.6575280059
 CU         2.5561412921        4.4079659337       -5.6581337778
 CU         5.1039300690        4.4083824807       -5.6588352214
 CU         7.6519428814        4.4089062404       -5.6595155852
 CU        10.2001352017        4.4094106568       -5.6600552682
 CU        12.7484272553        4.4097490944       -5.6603145782
 CU        15.2967236831        4.4098216716       -5.6602212321
 CU        17.8449380650        4.4096393066       -5.6598268610
 CU        20.3930088675        4.4092947214       -5.6592477504
 CU        22.9409066473        4.4088888755       -5.6585823890
 CU        25.4886254704        4.4084947733       -5.6579376774
 CU        28.0361757976        4.4081671298       -5.6574231990
 CU        30.5835817153        4.4079335938       -5.6570925501
 CU        33.1308911335        4.4077779356       -5.6569359601
 CU        35.6781538982        4.4076769349       -5.6569371039
 CU        38.2254339283        4.4076404488       -5.6571213027
 CU         1.2820473098        6.6141731544       -5.6583603615
 CU         3.8296105529        6.6143959724       -5.6594219887
 CU         6.3774701470        6.6147695141       -5.6605380284
 CU         8.9256329715        6.6152218839       -5.6614994643
 CU        11.4740343982        6.6156246247       -5.6620861074
 CU        14.0225495898        6.6158332693       -5.6621490104
 CU        16.5710074217        6.6157897222       -5.6617107324
 CU        19.1192883632        6.6155545780       -5.6609234436
 CU        21.6673426508        6.6152283971       -5.6599839371
 CU        24.2151635044        6.6148966688       -5.6590483211
 CU        26.7627639680        6.6146192902       -5.6582215080
 CU        29.3101684078        6.6144278409       -5.6575726000
 CU        31.8574298438        6.6143062417       -5.6571437500
 CU        34.4046021131        6.6142162682       -5.6569728497
 CU        36.9517500503        6.6141406270       -5.6570909566
 CU        39.4989462706        6.6141059635       -5.6575491410
 CU         0.0082951916        8.8206481945       -5.6581459601
 CU         2.5556266555        8.8207126736       -5.6594162945
 CU         5.1032199684        8.8209188861       -5.6609977817
 CU         7.6511667337        8.8212460806       -5.6626206641
 CU        10.1994839156        8.8216110099       -5.6639049544
 CU        12.7481009525        8.8218796559       -5.6644925038
 CU        15.2967988957        8.8219514309       -5.6642546896
 CU        17.8453397655        8.8218218749       -5.6633183680
 CU        20.3936056176        8.8215753172       -5.6620139368
 CU        22.9415767533        8.8213090771       -5.6606614342
 CU        25.4892665519        8.8210924606       -5.6594127647
 CU        28.0367084598        8.8209525236       -5.6583488626
 CU        30.5839718346        8.8208756273       -5.6575404739
 CU        33.1311239596        8.8208196466       -5.6570649648
 CU        35.6782279926        8.8207531321       -5.6569822730
 CU        38.2253412950        8.8206819075       -5.6573304050
 CU         1.2820183318       11.0272642079       -5.6588885123
 CU         3.8293892483       11.0273587664       -5.6606077650
 CU         6.3770473093       11.0275790174       -5.6627347885
 CU         8.9251089615       11.0278791271       -5.6648510132
 CU        11.4735835584       11.0281523817       -5.6663567961
 CU        14.0223393261       11.0282827247       -5.6667812017
 CU        16.5710914987       11.0282250951       -5.6660662231
 CU        19.1195912722       11.0280307630       -5.6645332387
 CU        21.6677471928       11.0278101539       -5.6627024582
 CU        24.2155607112       11.0276362278       -5.6609276134
 CU        26.7630788728       11.0275332844       -5.6593722263
 CU        29.3103873902       11.0274838869       -5.6581381943
 CU        31.8575818654       11.0274487102       -5.6573132649
 CU        34.4047270905       11.0273984609       -5.6569483016
 CU        36.9518627189       11.0273316085       -5.6570781203
 CU        39.4990219640       11.0272726010       -5.6577150185
 CU         0.0086187882       13.2339096857       -5.6582206628
 CU         2.5559170870       13.2339645633       -5.6596986117
 CU         5.1033697284       13.2341306345       -5.6618442255
 CU         7.6511361670       13.2344069900       -5.6644491883
 CU        10.1993212936       13.2347160816       -5.6668535703
 CU        12.7478969599       13.2349162770       -5.6682543530
 CU        15.2966564854       13.2349070751       -5.6682349907
 CU        17.8453013799       13.2347276490       -5.6669204454
 CU        20.3936184395       13.2344990965       -5.6648244675
 CU        22.9415723447       13.2343149217       -5.6625535273
 CU        25.4891997273       13.2342025272       -5.6605007494
 CU        28.0365979071       13.2341410735       -5.6588615611
 CU        30.5838863011       13.2340919039       -5.6577279007
 CU        33.1311342202       13.2340333135       -5.6570968903
 CU        35.6783686873       13.2339710767       -5.6569628613
 CU        38.2256015716       13.2339237854       -5.6573367106
 CU         1.2825802930       15.4406029799       -5.6587600078
 CU         3.8299786810       15.4407562963       -5.6604985028
 CU         6.3775537899       15.4410379643       -5.6629865711
 CU         8.9254473649       15.4414298441       -5.6658169199
 CU        11.4737190889       15.4417734781       -5.6680850752
 CU        14.0222773895       15.4418821340       -5.6689875721
 CU        16.5708768628       15.4417310817       -5.6683281642
 CU        19.1192625711       15.4414499401       -5.6664329572
 CU        21.6673267024       15.4411745467       -5.6639586912
 CU        24.2150777508       15.4409815518       -5.6615660857
 CU        26.7626087470       15.4408505706       -5.6596249422
 CU        29.3100293951       15.4407496840       -5.6582655081
 CU        31.8574105425       15.4406543614       -5.6574331943
 CU        34.4047731676       15.4405714381       -5.6570644662
 CU        36.9521236140       15.4405308842       -5.6571581537
 CU        39.4994643790       15.4405404982       -5.6577103327
 CU         0.0091831489       17.6471944491       -5.6581063005
 CU         2.5566371738       17.6473494817       -5.6592821276
 CU         5.1041605683       17.6476381845       -5.6612043290
 CU         7.6518596541       17.6480954191       -5.6638014422
 CU        10.1998485529       17.6486209727       -5.6664456754
 CU        12.7481229153       17.6489433875       -5.6681458788
 CU        15.2965211336       17.6489211584       -5.6683103438
 CU        17.8448445679       17.6486281571       -5.6670210343
 CU        20.3929475562       17.6482274271       -5.6647914732
 CU        22.9408023120       17.6478734687       -5.6623770657
 CU        25.4884734255       17.6476136478       -5.6603304862
 CU        28.0360449448       17.6474230578       -5.6588580745
 CU        30.5835718363       17.6472728290       -5.6578965414
 CU        33.1310654010       17.6471523569       -5.6573365414
 CU        35.6785289944       17.6470903169       -5.6571833377
 CU        38.2259734722       17.6471100394       -5.6574451340
 CU         1.2831832383       19.8538768469       -5.6584722051
 CU         3.8307418713       19.8541482164       -5.6597347291
 CU         6.3783653965       19.8546151421       -5.6616853331
 CU         8.9261535949       19.8552553811       -5.6640957839
 CU        11.4741757373       19.8558212061       -5.6661730476
 CU        14.0223565808       19.8560194110       -5.6670582871
 CU        16.5705416128       19.8558329119       -5.6665223677
 CU        19.1186091608       19.8553782545       -5.6648750455
 CU        21.6665123390       19.8548587043       -5.6627729326
 CU        24.2142859386       19.8544307757       -5.6608593931
 CU        26.7619857409       19.8541224843       -5.6594051012
 CU        29.3096408993       19.8538984981       -5.6583924706
 CU        31.8572553207       19.8537318707       -5.6577030275
 CU        34.4048233936       19.8536323751       -5.6573232405
 CU        36.9523541487       19.8536330255       -5.6573314568
 CU        39.4998764788       19.8537221470       -5.6577215203
 CU         0.0095974933       22.0603500528       -5.6579399638
 CU         2.5572094219       22.0605920033       -5.6587335783
 CU         5.1048317188       22.0610151367       -5.6600041577
 CU         7.6525154098       22.0616600395       -5.6618288743
 CU        10.2003506810       22.0623817875       -5.6638109994
 CU        12.7483488450       22.0628344478       -5.6651224780
 CU        15.2964060455       22.0628455634       -5.6652549109
 CU        17.8444088280       22.0624685298       -5.6642918888
 CU        20.3923132780       22.0618757371       -5.6627141647
 CU        22.9401320132       22.0612964938       -5.6611073235
 CU        25.4879051946       22.0608557920       -5.6598058771
 CU        28.0356487770       22.0605446053       -5.6588166762
 CU        30.5833548542       22.0603204732       -5.6580606514
 CU        33.1310125399       22.0601720006       -5.6575138720
 CU        35.6786257891       22.0601301364       -5.6572829338
 CU        38.2262219458       22.0602030991       -5.6574528405
 CU         1.2835743124       24.2669939651       -5.6580246679
 CU         3.8312208790       24.2673575287       -5.6588090300
 CU         6.3788720415       24.2679340923       -5.6600315572
 CU         8.9265925738       24.2686800695       -5.6616255870
 CU        11.4744458244       24.2693296284       -5.6630542524
 CU        14.0223909660       24.2695836678       -5.6636670902
 CU        16.5703351579       24.2693756484       -5.6633157058
 CU        19.1182236958       24.2688351269       -5.6622923253
 CU        21.6660512242       24.2681855949       -5.6610550142
 CU        24.2138420215       24.2676258428       -5.6599653223
 CU        26.7616197358       24.2672174611       -5.6590751392
 CU        29.3093807750       24.2669233617       -5.6583112088
 CU        31.8571077498       24.2667167507       -5.6576702017
 CU        34.4047962165       24.2666090602       -5.6572651614
 CU        36.9524673485       24.2666370275       -5.6572366284
 CU        39.5001394395       24.2667731485       -5.6575274008
 CU         0.0098496566       26.4733426842       -5.6574617920
 CU         2.5575354438       26.4736644168       -5.6579334259
 CU         5.1051966632       26.4741589821       -5.6587063557
 CU         7.6528712457       26.4748446164       -5.6598452116
 CU        10.2006230816       26.4755769272       -5.6611326209
 CU        12.7484675387       26.4760494117       -5.6620222292
 CU        15.2963501002       26.4760659719       -5.6621487916
 CU        17.8442119029       26.4756686203       -5.6616113855
 CU        20.3920324500       26.4750475698       -5.6607354853
 CU        22.9398165329       26.4744204148       -5.6598448533
 CU        25.4875879927       26.4739175728       -5.6590760058
 CU        28.0353625048       26.4735386561       -5.6583820707
 CU        30.5831330014       26.4732589450       -5.6577467757
 CU        33.1308887270       26.4730756709       -5.6572564888
 CU        35.6786286500       26.4730281717       -5.6570579423
 CU        38.2263615633       26.4731325991       -5.6571685054
 CU         1.2837590806       28.6799143509       -5.6572627089
 CU         3.8314519534       28.6803466204       -5.6577323424
 CU         6.3791298099       28.6809526051       -5.6584893797
 CU         8.9268359699       28.6816736772       -5.6594927338
 CU        11.4746097640       28.6822941565       -5.6604248429
 CU        14.0224353643       28.6825402185       -5.6608694672
 CU        16.5702662342       28.6823420419       -5.6607273399
 CU        19.1180720051       28.6818273976       -5.6601848040
 CU        21.6658449951       28.6811993203       -5.6594914475
 CU        24.2136000183       28.6806254691       -5.6588389174
 CU        26.7613621624       28.6801606908       -5.6582525003
 CU        29.3091407003       28.6797940945       -5.6577119368
 CU        31.8569330438       28.6795275183       -5.6572494235
 CU        34.4047245407       28.6793930364       -5.6569461623
 CU        36.9525016748       28.6794323085       -5.6568768886
 CU        39.5002602194       28.6796188911       -5.6570002791
 CU         0.0098824424       30.8860927843       -5.6567940054
 CU         2.5576080298       30.8864789233       -5.6570572073
 CU         5.1053082400       30.8870147494       -5.6575379494
 CU         7.6530124562       30.8876875494       -5.6582478387
 CU        10.2007577533       30.8883643461       -5.6590449469
 CU        12.7485570123       30.8888036985       -5.6596182916
 CU        15.2963756693       30.8888286219       -5.6597548636
 CU        17.8441778010       30.8884765384       -5.6595015729
 CU        20.3919474052       30.8879109272       -5.6590214163
 CU        22.9396920437       30.8873076776       -5.6584939240
 CU        25.4874353753       30.8867728911       -5.6580120513
 CU        28.0351973768       30.8863251048       -5.6575743276
 CU        30.5829823304       30.8859746906       -5.6571953503
 CU        33.1307819276       30.8857514026       -5.6568923000
 CU        35.6785758965       30.8857009354       -5.6567077520
 CU        38.2263544746       30.8858297759       -5.6566822029
 CU         1.2836763700       33.0925556352       -5.6566519542
 CU         3.8313977958       33.0930329053       -5.6569455810
 CU         6.3791118191       33.0936471114       -5.6574385760
 CU         8.9268551808       33.0943203142       -5.6580677007
 CU        11.4746531822       33.0948722196       -5.6586335605
 CU        14.0224905636       33.0951057616       -5.6589222726
 CU        16.5703213630       33.0949536919       -5.6588740151
 CU        19.1181139273       33.0945110287       -5.6585780495
 CU        21.6658661960       33.0939342564       -5.6581723666
 CU        24.2135974686       33.0933607492       -5.6577730511
 CU        26.7613332027       33.0928497474       -5.6574057798
 CU        29.3090843281       33.0924262881       -5.6570909275
 CU        31.8568518558       33.0921218538       -5.6568396738
 CU        34.4046261963       33.0919746860       -5.6566413382
 CU        36.9523975457       33.0920121679       -5.6565232546
 CU        39.5001609455       33.0922163733       -5.6565249943
 CU         0.0096821001       35.2985951086       -5.6564626214
 CU         2.5574145760       35.2990143507       -5.6566288445
 CU         5.1051440303       35.2995730268       -5.6569711684
 CU         7.6528960579       35.3002180288       -5.6574785375
 CU        10.2007006900       35.3008178322       -5.6580213641
 CU        12.7485597262       35.3011992449       -5.6583970788
 CU        15.2964387136       35.3012442091       -5.6584834455
 CU        17.8442905139       35.3009656213       -5.6583063247
 CU        20.3920899316       35.3004753646       -5.6579798920
 CU        22.9398378396       35.2999112357       -5.6576236548
 CU        25.4875570508       35.2993650096       -5.6572876387
 CU        28.0352671795       35.2988843396       -5.6570002171
 CU        30.5829809157       35.2985103291       -5.6567907517
 CU        33.1307034572       35.2982764088       -5.6566365621
 CU        35.6784338099       35.2982090745       -5.6565022711
 CU        38.2261714355       35.2983207042       -5.6564292431
 CU         1.2833528129       37.5049738954       -5.6565602640
 CU         3.8310908804       37.5054696134       -5.6567957332
 CU         6.3788644094       37.5060784152       -5.6572027749
 CU         8.9266933423       37.5066981240       -5.6577112592
 CU        11.4745828430       37.5071775927       -5.6581515924
 CU        14.0225105434       37.5073836720       -5.6583618231
 CU        16.5704361485       37.5072724501       -5.6582999329
 CU        19.1183166121       37.5069058265       -5.6580311403
 CU        21.6661262696       37.5064013561       -5.6576723319
 CU        24.2138669597       37.5058598157       -5.6573113864
 CU        26.7615561045       37.5053490081       -5.6570016115
 CU        29.3092143175       37.5049220309       -5.6567921109
 CU        31.8568624134       37.5046186565       -5.6566766861
 CU        34.4045133270       37.5044575876       -5.6565863156
 CU        36.9521784995       37.5044566515       -5.6564983605
 CU        39.4998674908       37.5046312711       -5.6564745076
 CU         1.2830762295        0.7309917218       -3.5972309407
 CU         3.8308610589        0.7314784427       -3.5975429650
 CU         6.3787228231        0.7320821869       -3.5979868794
 CU         8.9266375659        0.7326844023       -3.5984835252
 CU        11.4745855830        0.7331370923       -3.5988866299
 CU        14.0225450087        0.7333200923       -3.5990663703
 CU        16.5704910370        0.7332057380       -3.5989751565
 CU        19.1184011442        0.7328601862       -3.5986637353
 CU        21.6662543033        0.7323879513       -3.5982325345
 CU        24.2140327487        0.7318805303       -3.5977786677
 CU        26.7617316607        0.7314074477       -3.5973979634
 CU        29.3093571687        0.7310263007       -3.5971613509
 CU        31.8569242646        0.7307615990       -3.5970581057
 CU        34.4044607952        0.7306067885       -3.5970164311
 CU        36.9520084838        0.7305672793       -3.5970030576
 CU        39.4996131251        0.7306840642       -3.5970584033
 CU         0.0089362989        2.9371113382       -3.5975260277
 CU         2.5566131107        2.9374600416       -3.5979521813
 CU         5.1044456227        2.9379900517       -3.5984814488
 CU         7.6524068656        2.9386108992       -3.5990408831
 CU        10.2004480863        2.9391730806       -3.5995256805
 CU        12.7485237591        2.9395179448       -3.5998014811
 CU        15.2965915217        2.9395555886       -3.5997806674
 CU        17.8446172769        2.9393107771       -3.5994861290
 CU        20.3925690587        2.9388934783       -3.5990101457
 CU        22.9404196157        2.9384151370       -3.5984463342
 CU        25.4881601972        2.9379516010       -3.5979005427
 CU        28.0357911781        2.9375593959       -3.5974808999
 CU        30.5833208228        2.9372689643       -3.5972360470
 CU        33.1307727805        2.9370773767       -3.5971351106
 CU        35.6781902883        2.9369691643       -3.5971364054
 CU        38.2256325688        2.9369625914       -3.5972527404
 CU         1.2824654973        5.1435677907       -3.5983089693
 CU         3.8301344179        5.1439213800       -3.5991248763
 CU         6.3780239395        5.1444518126       -3.5999745307
 CU         8.9261084116        5.1450487652       -3.6007102484
 CU        11.4743151910        5.1455367537       -3.6011769076
 CU        14.0225572700        5.1457582637       -3.6012526602
 CU        16.5707592367        5.1456638595       -3.6009296998
 CU        19.1188555030        5.1453342036       -3.6003173719
 CU        21.6668061396        5.1449003747       -3.5995627141
 CU        24.2146075316        5.1444628162       -3.5987933243
 CU        26.7622684419        5.1440859746       -3.5981213325
 CU        29.3097956188        5.1438032488       -3.5976203659
 CU        31.8572052379        5.1436124361       -3.5973159309
 CU        34.4045419254        5.1434862930       -3.5972072805
 CU        36.9518588830        5.1434105734       -3.5973126179
 CU        39.4992180121        5.1434160920       -3.5976752699
 CU         0.0086206334        7.3499177138       -3.5983003719
 CU         2.5560729786        7.3500507611       -3.5994014654
 CU         5.1037432863        7.3503834814       -3.6007214759
 CU         7.6516887771        7.3508829102       -3.6020210539
 CU        10.1998998671        7.3514108325       -3.6030096137
 CU        12.7482842261        7.3517841687       -3.6034131423
 CU        15.2966917897        7.3518675208       -3.6031664770
 CU        17.8449866633        7.3516715236       -3.6023829306
 CU        20.3930965302        7.3513162564       -3.6013133863
 CU        22.9410050327        7.3509248797       -3.6001950808
 CU        25.4887252988        7.3505820451       -3.5991732931
 CU        28.0362734077        7.3503313130       -3.5983176852
 CU        30.5836755066        7.3501745370       -3.5976809227
 CU        33.1309831661        7.3500696286       -3.5973127578
 CU        35.6782488584        7.3499840606       -3.5972640572
 CU        38.2255212271        7.3499199714       -3.5975798872
 CU         1.2823821436        9.5564533542       -3.5991113053
 CU         3.8298470288        9.5565733820       -3.6007180202
 CU         6.3775435348        9.5568922525       -3.6026193969
 CU         8.9255476784        9.5573473807       -3.6044345946
 CU        11.4738611618        9.5577629046       -3.6056528611
 CU        14.0223699741        9.5579725626       -3.6058880715
 CU        16.5708486995        9.5579161742       -3.6051529536
 CU        19.1191503593        9.5576596416       -3.6037802818
 CU        21.6672233541        9.5573323927       -3.6021990529
 CU        24.2150491226        9.5570408273       -3.6006893140
 CU        26.7626476068        9.5568426817       -3.5993606509
 CU        29.3100693524        9.5567375658       -3.5982934415
 CU        31.8573918840        9.5566760158       -3.5975650668
 CU        34.4046766867        9.5566102072       -3.5972449691
 CU        36.9519581537        9.5565352691       -3.5973770093
 CU        39.4992599269        9.5564679735       -3.5979900512
 CU         0.0089056196       11.7630312854       -3.5985467946
 CU         2.5563143547       11.7630237393       -3.6000437880
 CU         5.1038322328       11.7631644581       -3.6021581110
 CU         7.6515841447       11.7634954509       -3.6046416189
 CU        10.1996500791       11.7639013532       -3.6068637023
 CU        12.7480075233       11.7641700763       -3.6080906277
 CU        15.2965117937       11.7641992504       -3.6079345390
 CU        17.8449327841       11.7640224451       -3.6065964777
 CU        20.3931510719       11.7637486806       -3.6046264363
 CU        22.9411055770       11.7635062824       -3.6025446105
 CU        25.4887931593       11.7633578072       -3.6006570305
 CU        28.0362745152       11.7633030889       -3.5991072874
 CU        30.5836573553       11.7632789310       -3.5979994140
 CU        33.1310196073       11.7632355310       -3.5973745891
 CU        35.6783847909       11.7631689514       -3.5972485770
 CU        38.2257553892       11.7630962774       -3.5976366041
 CU         1.2829241076       13.9696095821       -3.5991813297
 CU         3.8304211782       13.9696447960       -3.6010192464
 CU         6.3780230590       13.9698562201       -3.6035945276
 CU         8.9258416759       13.9702363766       -3.6064781584
 CU        11.4739281006       13.9705861699       -3.6087492214
 CU        14.0222397937       13.9706937547       -3.6095970109
 CU        16.5706056098       13.9705611510       -3.6088409572
 CU        19.1188476642       13.9703043196       -3.6068871744
 CU        21.6668732910       13.9700626427       -3.6044140312
 CU        24.2146561774       13.9699237724       -3.6020064194
 CU        26.7622396829       13.9698831399       -3.6000094156
 CU        29.3097362494       13.9698700979       -3.5985753883
 CU        31.8572199081       13.9698296628       -3.5976953922
 CU        34.4047087394       13.9697639451       -3.5973123886
 CU        36.9521980929       13.9697027240       -3.5974295313
 CU        39.4996780235       13.9696511786       -3.5980395956
 CU         0.0094712313       16.1762078488       -3.5984989335
 CU         2.5570560428       16.1762157161       -3.5998165924
 CU         5.1046564125       16.1763434121       -3.6019359229
 CU         7.6523371185       16.1766860787       -3.6047876524