    56     
 i =        6, E =      -576.5522445873
  C        18.9884579086       16.7625785267       15.8948326718
  C        13.9898729678       16.8190658654       15.9805464928
  C        15.2347352832       16.0997596584       15.9748971959
  C        15.2340443632       14.6554451644       15.9862763248
  C        13.9880496017       13.9376058562       15.9877870088
  C        12.7368443552       14.6607998201       15.9881887479
  C        12.7377457062       16.0977891457       15.9885656847
  C        11.5044473495       16.8130036021       15.9845033892
  C        13.9879423544       18.2439705812       15.9624964455
  C        12.7282142824       18.9841924344       15.9763217012
  C        11.4932876947       18.2720826358       15.9827477383
  C        10.3034913850       16.0693845400       15.9769825612
  C        10.3025446339       14.6927847784       15.9768314695
  C        11.5025072471       13.9476231043       15.9825131606
  C        11.4892009572       12.4888502572       15.9674383305
  C        12.7231993506       11.7745303222       15.9656853050
  C        13.9840745540       12.5124263508       15.9809984816
  C        16.4693302204       13.9434456429       15.9843147635
  C        16.4228026705       12.5315453075       15.9768660043
  C        15.2292099927       11.8447079595       15.9739842666
  C        17.7413302949       16.0878384145       15.9384088475
  C        17.7408479512       14.6630958297       15.9729995257
  C        16.4255489291       18.2214070254       15.8986939864
  C        15.2328830937       18.9096546261       15.9094861379
  C        16.4702290108       16.8103059219       15.9410994743
  C        12.6897015780       20.4022379206       15.9724432022
  C        11.4929872708       21.0994199931       15.9713202518
  C        10.2752326291       20.3963909575       15.9712998395
  C        10.2827920185       19.0121615838       15.9776050002
  C        10.2776040970       11.7509713487       15.9326708330
  C        10.2691335176       10.3669743978       15.8956341854
  C        11.4862243889        9.6627819689       15.8932422274
  C        12.6837887296       10.3572885533       15.9281277153
  C        18.9881682994       13.9867726231       15.9774982651
  C        20.1912226021       14.6716371386       15.9375149854
  C        20.1911121178       16.0763232692       15.8921346195
  H        11.4914031276        8.5773099718       15.8536200622
  H         9.3250757907        9.8306955538       15.8576672519
  H        13.6059999194        9.7889692989       15.9173170226
  H        21.1285497468       14.1229819176       15.9324736370
  H        21.1282997989       16.6234554256       15.8471598818
  H        19.0168573983       17.8446039820       15.8530124696
  H        13.6125623097       20.9696231562       15.9597922053
  H        11.4995979704       22.1854852406       15.9556701223
  H         9.3315720156       20.9341239240       15.9550138096
  H         9.3272307153       12.2702965844       15.9242739165
  H        19.0162331042       12.9042767703       16.0054808691
  H         9.3317031736       18.4940884226       15.9668514369
  H        13.8698192076       15.7037772791       20.1028747571
  H        14.4482451210       15.2336513762       20.0875569124
  H         9.3481879469       16.5789966051       15.9593532678
  H         9.3465884744       14.1844690228       15.9592181275
  H        17.3410889661       11.9577194667       15.9569977184
  H        15.2657061032       10.7624442215       15.9540982055
  H        17.3438779765       18.7933365771       15.8498439934
  H        15.2695639201       19.9912218546       15.8656148757
