       3
 i =        0, time =        0.000, E =       -17.1707135422
  O        -0.0000013586       -0.0003320371       -0.0000012323
  H        -0.0004419421       -0.0001392743        0.0000016389
  H         0.0004432955       -0.0001393694       -0.0000003985
       3
 i =        1, time =        0.500, E =       -17.1705694374
  O        -0.0053096686        0.0021258687        0.0000000310
  H        -0.0032687625        0.0006832549        0.0000000091
  H         0.0085743368       -0.0033992262       -0.0000000268
       3
 i =        2, time =        1.000, E =       -17.1702179024
  O        -0.0097776269        0.0037512864       -0.0000000208
  H        -0.0058227270        0.0015231271       -0.0000000179
  H         0.0155669714       -0.0058435298        0.0000000512
       3
 i =        3, time =        1.500, E =       -17.1697644601
  O        -0.0130316749        0.0042623280        0.0000000187
  H        -0.0079674084        0.0024004650        0.0000000080
  H         0.0209489640       -0.0072215657       -0.0000000131
       3
 i =        4, time =        2.000, E =       -17.1693262155
  O        -0.0148722718        0.0035348461        0.0000000095
  H        -0.0096033521        0.0033312044       -0.0000000027
  H         0.0244346780       -0.0074340560        0.0000000068
       3
 i =        5, time =        2.500, E =       -17.1689945105
  O        -0.0152006642        0.0015443025        0.0000000013
  H        -0.0106644319        0.0043237791       -0.0000000004
  H         0.0258454245       -0.0064711417        0.0000000136
       3
 i =        6, time =        3.000, E =       -17.1688100871
  O        -0.0139741951       -0.0016761594        0.0000000080
  H        -0.0111148968        0.0053797634        0.0000000003
  H         0.0250853578       -0.0043702591        0.0000000066
       3
 i =        7, time =        3.500, E =       -17.1687544662
  O        -0.0111980047       -0.0060463757        0.0000000047
  H        -0.0109517315        0.0064915189       -0.0000000001
  H         0.0221503830       -0.0012013898        0.0000000107
       3
 i =        8, time =        4.000, E =       -17.1687597708
  O        -0.0069629951       -0.0114186836        0.0000000009
  H        -0.0102079943        0.0076399254        0.0000000020
  H         0.0171690026        0.0029177817        0.0000000125
       3
 i =        9, time =        4.500, E =       -17.1687372559
  O        -0.0015172020       -0.0175354061        0.0000000031
  H        -0.0089598195        0.0087938193        0.0000000038
  H         0.0104756602        0.0077787078        0.0000000090
       3
 i =       10, time =        5.000, E =       -17.1686200295
  O         0.0046353008       -0.0239640636        0.0000000031
  H        -0.0073226579        0.0099055134        0.0000000059
  H         0.0026973515        0.0130142782        0.0000000071
       3
 i =       11, time =        5.500, E =       -17.1684057394
  O         0.0106720573       -0.0300696550        0.0000000007
  H        -0.0054500281        0.0109185248        0.0000000094
  H        -0.0051921419        0.0180557855        0.0000000061
       3
 i =       12, time =        6.000, E =       -17.1681747512
  O         0.0155529354       -0.0350345062       -0.0000000006
  H        -0.0035361971        0.0117527363        0.0000000131
  H        -0.0119684534        0.0221659489        0.0000000041
       3
 i =       13, time =        6.500, E =       -17.1680611261
  O         0.0182289950       -0.0380114610       -0.0000000026
  H        -0.0017892183        0.0123207513        0.0000000167
  H        -0.0163830025        0.0245828737        0.0000000027
       3
 i =       14, time =        7.000, E =       -17.1681800283
  O         0.0180223303       -0.0383425937       -0.0000000057
  H        -0.0004136369        0.0125252877        0.0000000201
  H        -0.0175541507        0.0247477441        0.0000000026
       3
 i =       15, time =        7.500, E =       -17.1685536683
  O         0.0149247483       -0.0357783924       -0.0000000092
  H         0.0004215741        0.0122723008        0.0000000226
  H        -0.0153012472        0.0225141401        0.0000000037
       3
 i =       16, time =        8.000, E =       -17.1690904449
  O         0.0096347598       -0.0305626923       -0.0000000124
  H         0.0006173341        0.0114869553        0.0000000238
  H        -0.0102210526        0.0182064585        0.0000000058
       3
 i =       17, time =        8.500, E =       -17.1696333417
  O         0.0032898516       -0.0233346754       -0.0000000147
  H         0.0001705562        0.0101314119        0.0000000233
  H        -0.0034468082        0.0124864727        0.0000000085
       3
 i =       18, time =        9.000, E =       -17.1700393409
  O        -0.0029409289       -0.0149169988       -0.0000000147
  H        -0.0008181449        0.0082173788        0.0000000211
  H         0.0037533406        0.0061200248        0.0000000110
       3
 i =       19, time =        9.500, E =       -17.1702370080
  O        -0.0081589963       -0.0061380547       -0.0000000122
  H        -0.0021590551        0.0058217330        0.0000000172
  H         0.0102947533       -0.0001901936        0.0000000128
       3
 i =       20, time =       10.000, E =       -17.1702386000
  O        -0.0118716103        0.0023173943       -0.0000000079
  H        -0.0036036601        0.0030729719        0.0000000119
  H         0.0154402554       -0.0058932858        0.0000000134
       3
 i =       21, time =       10.500, E =       -17.1701158512
  O        -0.0139282101        0.0099117614       -0.0000000008
  H        -0.0048905864        0.0001524275        0.0000000061
  H         0.0187819939       -0.0105913511        0.0000000125
       3
 i =       22, time =       11.000, E =       -17.1699604908
  O        -0.0144073519        0.0162387427        0.0000000081
  H        -0.0057740016       -0.0027291010        0.0000000002
  H         0.0201558564       -0.0140395544        0.0000000102
       3
 i =       23, time =       11.500, E =       -17.1698468379
  O        -0.0134819037        0.0210016473        0.0000000174
  H        -0.0060594980       -0.0053693712       -0.0000000048
  H         0.0195407124       -0.0161191988        0.0000000063
       3
 i =       24, time =       12.000, E =       -17.1698065910
  O        -0.0113453049        0.0239823642        0.0000000268
  H        -0.0056147001       -0.0076023004       -0.0000000082
  H         0.0169897107       -0.0167860523        0.0000000006
       3
 i =       25, time =       12.500, E =       -17.1698194714
  O        -0.0081808664        0.0250432438        0.0000000348
  H        -0.0043800832       -0.0093133484       -0.0000000093
  H         0.0126078626       -0.0160384493       -0.0000000066
       3
 i =       26, time =       13.000, E =       -17.1698211782
  O        -0.0041808219        0.0241505581        0.0000000431
  H        -0.0023740302       -0.0104380546       -0.0000000078
  H         0.0065886097       -0.0139286401       -0.0000000153
       3
 i =       27, time =       13.500, E =       -17.1697287019
  O         0.0004065761        0.0214260978        0.0000000489
  H         0.0003042506       -0.0109573521       -0.0000000033
  H        -0.0007124643       -0.0106108213       -0.0000000254
       3
 i =       28, time =       14.000, E =       -17.1694791119
  O         0.0052133253        0.0172096000        0.0000000528
  H         0.0034757237       -0.0108942456        0.0000000042
  H        -0.0087163787       -0.0064060969       -0.0000000363
       3
 i =       29, time =       14.500, E =       -17.1690688348
  O         0.0097120702        0.0121189539        0.0000000545
  H         0.0068921175       -0.0103230480        0.0000000142
  H        -0.0166261660       -0.0018550392       -0.0000000477
       3
 i =       30, time =       15.000, E =       -17.1685735626
  O         0.0132548163        0.0070104943        0.0000000545
  H         0.0102459823       -0.0093643949        0.0000000258
  H        -0.0234974452        0.0023125949       -0.0000000586
       3
 i =       31, time =       15.500, E =       -17.1681311644
  O         0.0151891951        0.0028576451        0.0000000519
  H         0.0132037521       -0.0081841172        0.0000000380
  H        -0.0283667131        0.0052949777       -0.0000000679
       3
 i =       32, time =       16.000, E =       -17.1678859208
  O         0.0150510716        0.0005177397        0.0000000478
  H         0.0154421851       -0.0069751503        0.0000000492
  H        -0.0304579362        0.0064329900       -0.0000000747
       3
 i =       33, time =       16.500, E =       -17.1679190299
  O         0.0127607525        0.0004672151        0.0000000427
  H         0.0166942264       -0.0059274259        0.0000000578
  H        -0.0294240415        0.0054422516       -0.0000000778
       3
 i =       34, time =       17.000, E =       -17.1682079133
  O         0.0086924856        0.0026563577        0.0000000372
  H         0.0167955767       -0.0051929261        0.0000000627
  H        -0.0254709442        0.0025242591       -0.0000000767
       3
 i =       35, time =       17.500, E =       -17.1686416400
  O         0.0035687299        0.0065537546        0.0000000324
  H         0.0157144133       -0.0048542154        0.0000000628
  H        -0.0192807871       -0.0017095971       -0.0000000712
       3
 i =       36, time =       18.000, E =       -17.1690796318
  O        -0.0017678093        0.0113515994        0.0000000280
  H         0.0135562069       -0.0049100708        0.0000000580
  H        -0.0117848394       -0.0064575662       -0.0000000619
       3
 i =       37, time =       18.500, E =       -17.1694142910
  O        -0.0065722370        0.0161916766        0.0000000260
  H         0.0105366802       -0.0052758849        0.0000000487
  H        -0.0039316707       -0.0109502894       -0.0000000497
       3
 i =       38, time =       19.000, E =       -17.1696055323
  O        -0.0103311600        0.0203443993        0.0000000246
  H         0.0069503167       -0.0058098114        0.0000000362
  H         0.0034566879       -0.0146040465       -0.0000000356
       3
 i =       39, time =       19.500, E =       -17.1696798777
  O        -0.0127815459        0.0232654134        0.0000000249
  H         0.0031266847       -0.0063358802        0.0000000217
  H         0.0097535947       -0.0170523338       -0.0000000208
       3
 i =       40, time =       20.000, E =       -17.1697042406
  O        -0.0138471397        0.0246071193        0.0000000257
  H        -0.0006091622       -0.0066834228        0.0000000070
  H         0.0145390771       -0.0181163743       -0.0000000064
       3
 i =       41, time =       20.500, E =       -17.1697503135
  O        -0.0135645943        0.0241697944        0.0000000265
  H        -0.0039650973       -0.0067035951       -0.0000000062
  H         0.0175716233       -0.0177363059        0.0000000067
       3
 i =       42, time =       21.000, E =       -17.1698629508
  O        -0.0120064836        0.0218696094        0.0000000266
  H        -0.0067126904       -0.0062889376       -0.0000000165
  H         0.0187233493       -0.0159156678        0.0000000176
       3
 i =       43, time =       21.500, E =       -17.1700402779
  O        -0.0092548568        0.0177141956        0.0000000255
  H        -0.0086939977       -0.0053783327       -0.0000000226
  H         0.0179349231       -0.0126961896        0.0000000254
       3
 i =       44, time =       22.000, E =       -17.1702298860
  O        -0.0054118128        0.0118076450        0.0000000227
  H        -0.0098189735       -0.0039602430       -0.0000000236
  H         0.0152188331       -0.0081819738        0.0000000297
       3
 i =       45, time =       22.500, E =       -17.1703438841
  O        -0.0006527372        0.0043780379        0.0000000186
  H        -0.0100559674       -0.0020692828       -0.0000000187
  H         0.0107110423       -0.0025975375        0.0000000299
       3
 i =       46, time =       23.000, E =       -17.1702923397
  O         0.0046920306       -0.0041735771        0.0000000121
  H        -0.0094317585        0.0002205525       -0.0000000078
  H         0.0047603007        0.0036657543        0.0000000262
       3
 i =       47, time =       23.500, E =       -17.1700262718
  O         0.0100560638       -0.0132408570        0.0000000028
  H        -0.0080325854        0.0028099716        0.0000000091
  H        -0.0019867879        0.0100597458        0.0000000195
       3
 i =       48, time =       24.000, E =       -17.1695723041
  O         0.0146282183       -0.0220103727       -0.0000000107
  H        -0.0060185630        0.0055767578        0.0000000312
  H        -0.0085618716        0.0159145224        0.0000000117
       3
 i =       49, time =       24.500, E =       -17.1690370995
  O         0.0174562913       -0.0295548989       -0.0000000295
  H        -0.0036266473        0.0083775634        0.0000000570
  H        -0.0137766607        0.0205035182        0.0000000055
       3
 i =       50, time =       25.000, E =       -17.1685682044
  O         0.0177413039       -0.0350073546       -0.0000000544
  H        -0.0011740207        0.0110313206        0.0000000842
  H        -0.0165135722        0.0231828223        0.0000000040
       3
 i =       51, time =       25.500, E =       -17.1682841346
  O         0.0151555517       -0.0377908606       -0.0000000844
  H         0.0009747136        0.0133285873        0.0000001099
  H        -0.0160811098        0.0235959409        0.0000000095
       3
 i =       52, time =       26.000, E =       -17.1682164115
  O         0.0100682522       -0.0377653515       -0.0000001179
  H         0.0024541143        0.0150485648        0.0000001306
  H        -0.0124864608        0.0218170975        0.0000000227
       3
 i =       53, time =       26.500, E =       -17.1683048011
  O         0.0034732511       -0.0352288365       -0.0000001491
  H         0.0029697316        0.0159996246        0.0000001431
  H        -0.0064280926        0.0183273783        0.0000000423
       3
 i =       54, time =       27.000, E =       -17.1684456517
  O        -0.0033499994       -0.0307758435       -0.0000001737
  H         0.0023723677        0.0160637581        0.0000001450
  H         0.0009715308        0.0138356392        0.0000000655
       3
 i =       55, time =       27.500, E =       -17.1685541474
  O        -0.0092401045       -0.0251087281       -0.0000001854
  H         0.0006955025        0.0152256671        0.0000001352
  H         0.0085279266        0.0090603205        0.0000000887
       3
 i =       56, time =       28.000, E =       -17.1686013072
  O        -0.0134270035       -0.0188988216       -0.0000001842
  H        -0.0018378715        0.0135803286        0.0000001147
  H         0.0152515700        0.0045788137        0.0000001089
       3
 i =       57, time =       28.500, E =       -17.1686146089
  O        -0.0155974654       -0.0127166871       -0.0000001694
  H        -0.0048673952        0.0113120496        0.0000000856
  H         0.0204619298        0.0007746185        0.0000001238
       3
 i =       58, time =       29.000, E =       -17.1686539983
  O        -0.0158036724       -0.0070135222       -0.0000001424
  H        -0.0079686511        0.0086509052        0.0000000517
  H         0.0237761639       -0.0021399139        0.0000001319
       3
 i =       59, time =       29.500, E =       -17.1687805473
  O        -0.0142959753       -0.0021459074       -0.0000001083
  H        -0.0107317876        0.0058349196        0.0000000168
  H         0.0250285348       -0.0040599024        0.0000001324
       3
 i =       60, time =       30.000, E =       -17.1690294683
  O        -0.0114033160        0.0016121302       -0.0000000675
  H        -0.0128093528        0.0030789174       -0.0000000151
  H         0.0242027682       -0.0049419015        0.0000001248
       3
 i =       61, time =       30.500, E =       -17.1693936051
  O        -0.0074596099        0.0040590548       -0.0000000255
  H        -0.0139440348        0.0005618158       -0.0000000405
  H         0.0213866266       -0.0047784517        0.0000001093
       3
 i =       62, time =       31.000, E =       -17.1698204154
  O        -0.0027940427        0.0050776639        0.0000000146
  H        -0.0139737342       -0.0015718541       -0.0000000562
  H         0.0167593165       -0.0036030279        0.0000000862
       3
 i =       63, time =       31.500, E =       -17.1702235911
  O         0.0022363313        0.0046622297        0.0000000498
  H        -0.0128261103       -0.0032087496       -0.0000000602
  H         0.0106014493       -0.0015213121        0.0000000563
       3
 i =       64, time =       32.000, E =       -17.1705078594
  O         0.0071947115        0.0029668034        0.0000000772
  H        -0.0105130033       -0.0042685896       -0.0000000509
  H         0.0033328444        0.0012419002        0.0000000209
       3
 i =       65, time =       32.500, E =       -17.1706018427
  O         0.0115301136        0.0003573702        0.0000000945
  H        -0.0071314866       -0.0047159335       -0.0000000277
  H        -0.0044215275        0.0042966715       -0.0000000182
       3
 i =       66, time =       33.000, E =       -17.1704881568
  O         0.0146144706       -0.0025699234        0.0000000999
  H        -0.0028875937       -0.0045805050        0.0000000082
  H        -0.0118058458        0.0070855900       -0.0000000584
       3
 i =       67, time =       33.500, E =       -17.1702139019
  O         0.0158507329       -0.0050474659        0.0000000973
  H         0.0018926183       -0.0039679292        0.0000000544
  H        -0.0178490352        0.0089518124       -0.0000000970
       3
 i =       68, time =       34.000, E =       -17.1698690466
  O         0.0148818075       -0.0062836907        0.0000000777
  H         0.0067594689       -0.0030712879        0.0000001064
  H        -0.0217278308        0.0093021019       -0.0000001313
       3
 i =       69, time =       34.500, E =       -17.1695415749
  O         0.0117565659       -0.0056723888        0.0000000554
  H         0.0112001037       -0.0021545327        0.0000001579
  H        -0.0230026163        0.0078024925       -0.0000001595
       3
 i =       70, time =       35.000, E =       -17.1692777504
  O         0.0069892956       -0.0029628220        0.0000000335
  H         0.0147269325       -0.0015138781        0.0000002017
  H        -0.0217294091        0.0045097094       -0.0000001804
       3
 i =       71, time =       35.500, E =       -17.1690724086
  O         0.0014292022        0.0016845583        0.0000000187
  H         0.0169711760       -0.0014151908        0.0000002311
  H        -0.0183979479       -0.0001445674       -0.0000001938
       3
 i =       72, time =       36.000, E =       -17.1688901907
  O        -0.0039916335        0.0077725693        0.0000000163
  H         0.0177476739       -0.0020269487        0.0000002411
  H        -0.0137489702       -0.0055035639       -0.0000002001
       3
 i =       73, time =       36.500, E =       -17.1686982165
  O        -0.0085031071        0.0146180649        0.0000000297
  H         0.0170784361       -0.0033777423        0.0000002297
  H        -0.0085641232       -0.0108782089       -0.0000002004
       3
 i =       74, time =       37.000, E =       -17.1684896508
  O        -0.0116353957        0.0214856427        0.0000000577
  H         0.0151727440       -0.0053439112        0.0000001983
  H        -0.0035153514       -0.0156787936       -0.0000001958
       3
 i =       75, time =       37.500, E =       -17.1682899059
  O        -0.0132317731        0.0276956749        0.0000000979
  H         0.0123725978       -0.0076826834        0.0000001513
  H         0.0008990628       -0.0194782179       -0.0000001876
       3
 i =       76, time =       38.000, E =       -17.1681478189
  O        -0.0133544611        0.0326812543        0.0000001462
  H         0.0090700451       -0.0100955797        0.0000000949
  H         0.0043437955       -0.0220067496       -0.0000001770
       3
 i =       77, time =       38.500, E =       -17.1681180022
  O        -0.0121910989        0.0360062160        0.0000001964
  H         0.0056478794       -0.0122805999        0.0000000360
  H         0.0066150810       -0.0231266514       -0.0000001655
       3
 i =       78, time =       39.000, E =       -17.1682408951
  O        -0.0099547002        0.0373638767        0.0000002475
  H         0.0024341518       -0.0139805211       -0.0000000188
  H         0.0075906956       -0.0227897084       -0.0000001542
       3
 i =       79, time =       39.500, E =       -17.1685258128
  O        -0.0068445495        0.0365724236        0.0000002954
  H        -0.0003132532       -0.0150023182       -0.0000000639
  H         0.0072098008       -0.0210152012       -0.0000001449
       3
 i =       80, time =       40.000, E =       -17.1689418855
  O        -0.0030426623        0.0335752539        0.0000003030
  H        -0.0024074894       -0.0152207185       -0.0000000938
  H         0.0054713421       -0.0178806823       -0.0000001375
       3
 i =       81, time =       40.500, E =       -17.1694205636
  O         0.0012504180        0.0284549188        0.0000003120
  H        -0.0037272440       -0.0145706732       -0.0000001058
  H         0.0024609675       -0.0135313878       -0.0000001341
       3
 i =       82, time =       41.000, E =       -17.1698711787
  O         0.0057602138        0.0214682425        0.0000003072
  H        -0.0042095289       -0.0130363007       -0.0000000974
  H        -0.0016022926       -0.0082057942       -0.0000001350
       3
 i =       83, time =       41.500, E =       -17.1702078273
  O         0.0100746739        0.0130850216        0.0000002841
  H        -0.0038534016       -0.0106483895       -0.0000000672
  H        -0.0063012083       -0.0022905301       -0.0000001391
       3
 i =       84, time =       42.000, E =       -17.1703800106
  O         0.0136212545        0.0039992020        0.0000002383
  H        -0.0027258111       -0.0074947719       -0.0000000155
  H        -0.0109912583        0.0036380574       -0.0000001440
       3
 i =       85, time =       42.500, E =       -17.1703927534
  O         0.0157199612       -0.0049196851        0.0000001747
  H        -0.0009765333       -0.0037453210        0.0000000548
  H        -0.0148402570        0.0088560720       -0.0000001454
       3
 i =       86, time =       43.000, E =       -17.1703003863
  O         0.0157492285       -0.0127659628        0.0000000834
  H         0.0011512344        0.0003344661        0.0000001390
  H        -0.0169808380        0.0126636729       -0.0000001374
       3
 i =       87, time =       43.500, E =       -17.1701718694
  O         0.0133858150       -0.0187846242       -0.0000000296
  H         0.0033202520        0.0043970570        0.0000002286
  H        -0.0167550940        0.0146060507       -0.0000001143
       3
 i =       88, time =       44.000, E =       -17.1700487366
  O         0.0088127780       -0.0225469015       -0.0000001542
  H         0.0051257108        0.0080716166        0.0000003129
  H        -0.0139519373        0.0146178254       -0.0000000721
       3
 i =       89, time =       44.500, E =       -17.1699254848
  O         0.0027533280       -0.0240172582       -0.0000002817
  H         0.0061561502        0.0110290826        0.0000003799
  H        -0.0089021686        0.0130189323       -0.0000000109
       3
 i =       90, time =       45.000, E =       -17.1697643673
  O        -0.0037161203       -0.0234959848       -0.0000003933
  H         0.0060802715        0.0130332036        0.0000004185
  H        -0.0023640820        0.0103812773        0.0000000654
       3
 i =       91, time =       45.500, E =       -17.1695289214
  O        -0.0094881382       -0.0214879637       -0.0000004813
  H         0.0047354032        0.0139748878        0.0000004215
  H         0.0047290543        0.0073419232        0.0000001499
       3
 i =       92, time =       46.000, E =       -17.1692110415
  O        -0.0137054242       -0.0185732020       -0.0000005237
  H         0.0021704323        0.0138868824        0.0000003867
  H         0.0114994947        0.0044543128        0.0000002343
       3
 i =       93, time =       46.500, E =       -17.1688391994
  O        -0.0159213013       -0.0153143458       -0.0000005293
  H        -0.0013480335        0.0129349703        0.0000003186
  H         0.0172492127        0.0021106517        0.0000003113
       3
 i =       94, time =       47.000, E =       -17.1684701317
  O        -0.0160709100       -0.0122078177       -0.0000004921
  H        -0.0054025759        0.0113738294        0.0000002267
  H         0.0214843325        0.0005451532        0.0000003752
       3
 i =       95, time =       47.500, E =       -17.1681713292
  O        -0.0143692581       -0.0096530144       -0.0000004376
  H        -0.0095056465        0.0094900374        0.0000001229
  H         0.0239103749       -0.0001347713        0.0000004200
       3
 i =       96, time =       48.000, E =       -17.1680009535
  O        -0.0111594290       -0.0079565707       -0.0000003575
  H        -0.0131881613        0.0075558809        0.0000000211
  H         0.0243886090        0.0001014429        0.0000004442
       3
 i =       97, time =       48.500, E =       -17.1679902479
  O        -0.0068285019       -0.0073234245       -0.0000002678
  H        -0.0160529067        0.0057981956       -0.0000000666
  H         0.0229102246        0.0012315174        0.0000004457
       3
 i =       98, time =       49.000, E =       -17.1681333391
  O        -0.0017710097       -0.0078561840       -0.0000001788
  H        -0.0178054902        0.0043887698       -0.0000001297
  H         0.0195861774        0.0031867490        0.0000004240
       3
 i =       99, time =       49.500, E =       -17.1683885565
  O         0.0035915146       -0.0095410951       -0.0000001017
  H        -0.0182609511        0.0034472137       -0.0000001598
  H         0.0146685087        0.0058351674        0.0000003804
       3
 i =      100, time =       50.000, E =       -17.1686930840
  O         0.0087671892       -0.0122202044       -0.0000000437
  H        -0.0173434433        0.0030449608       -0.0000001512
  H         0.0085860329        0.0089492150        0.0000003183
       3
 i =      101, time =       50.500, E =       -17.1689873619
  O         0.0131569529       -0.0155668561       -0.0000000174
  H        -0.0150835857        0.0032092639       -0.0000001004
  H         0.0019661164        0.0121772239        0.0000002430
       3
 i =      102, time =       51.000, E =       -17.1692390567
  O         0.0160912158       -0.0190660713       -0.0000000250
  H        -0.0116301157        0.0039100524       -0.0000000079
  H        -0.0043950426        0.0150379055        0.0000001622
       3
 i =      103, time =       51.500, E =       -17.1694532189
  O         0.0169494197       -0.0220545442       -0.0000000729
  H        -0.0072594766        0.0050459146        0.0000001210
  H        -0.0096250058        0.0169745676        0.0000000843
       3
 i =      104, time =       52.000, E =       -17.1696601648
  O         0.0153739501       -0.0238177729       -0.0000001513
  H        -0.0023746666        0.0064242397        0.0000002749
  H        -0.0129646846        0.0174702750        0.0000000168
       3
 i =      105, time =       52.500, E =       -17.1698866323
  O         0.0114559649       -0.0237447032       -0.0000002501
  H         0.0025129125        0.0077602678        0.0000004362
  H        -0.0139699027        0.0161962389       -0.0000000360
       3
 i =      106, time =       53.000, E =       -17.1701292237
  O         0.0058228514       -0.0214665569       -0.0000003642
  H         0.0068290419        0.0086951209        0.0000005821
  H        -0.0126677107        0.0131219897       -0.0000000740
       3
 i =      107, time =       53.500, E =       -17.1703484675
  O        -0.0004960998       -0.0169389067       -0.0000004369
  H         0.0100331020        0.0088569455        0.0000006871
  H        -0.0095387825        0.0085351086       -0.0000001008
       3
 i =      108, time =       54.000, E =       -17.1704853201
  O        -0.0063732215       -0.0104389412       -0.0000004583
  H         0.0117480129        0.0079538182        0.0000007313
  H        -0.0053446514        0.0029709312       -0.0000001223
       3
 i =      109, time =       54.500, E =       -17.1704871640
  O        -0.0108992528       -0.0024983984       -0.0000004047
  H         0.0118645937        0.0058668570        0.0000007032
  H        -0.0009003040       -0.0029114103       -0.0000001442
       3
 i =      110, time =       55.000, E =       -17.1703289870
  O        -0.0135827981        0.0061950431       -0.0000002732
  H         0.0105677944        0.0027032368        0.0000006050
  H         0.0031071604       -0.0084785705       -0.0000001709
       3
 i =      111, time =       55.500, E =       -17.1700226327
  O        -0.0143634252        0.0148987093       -0.0000000833
  H         0.0082690117       -0.0012242659        0.0000004510
  H         0.0062013401       -0.0132493022       -0.0000002050
       3
 i =      112, time =       56.000, E =       -17.1696142199
  O        -0.0134764470        0.0229046682        0.0000001577
  H         0.0054809979       -0.0054884957        0.0000002636
  H         0.0081032299       -0.0169282956       -0.0000002478
       3