       3
 i =        0, time =        0.000, E =       -17.1707135422
  O         0.0000000088        0.0557750052        0.0000001715
  H         0.7708525133        0.6566165520        0.0000000038
  H        -0.7708525028        0.6566165441        0.0000000043
       3
 i =        1, time =        0.500, E =       -17.1705694374
  O         0.0003431855        0.0565273635        0.0000001665
  H         0.7796105386        0.6485035279        0.0000001069
  H        -0.7850578975        0.6527495351       -0.0000000191
       3
 i =        2, time =        1.000, E =       -17.1702179024
  O         0.0006451985        0.0572962028        0.0000001618
  H         0.7879663106        0.6404745851        0.0000002111
  H        -0.7982081361        0.6484642180       -0.0000000459
       3
 i =        3, time =        1.500, E =       -17.1697644601
  O         0.0008714095        0.0580941243        0.0000001569
  H         0.7956055392        0.6326330779        0.0000003131
  H        -0.8094427066        0.6434597974       -0.0000000663
       3
 i =        4, time =        2.000, E =       -17.1693262155
  O         0.0009965911        0.0589250898        0.0000001521
  H         0.8022643001        0.6250869715        0.0000004161
  H        -0.8180993020        0.6375666924       -0.0000000884
       3
 i =        5, time =        2.500, E =       -17.1689945105
  O         0.0010064741        0.0597834597        0.0000001474
  H         0.8077412746        0.6179508024        0.0000005188
  H        -0.8237489712        0.6307587541       -0.0000001096
       3
 i =        6, time =        3.000, E =       -17.1688100871
  O         0.0008985125        0.0606538019        0.0000001427
  H         0.8119058863        0.6113467166        0.0000006214
  H        -0.8262181079        0.6231544785       -0.0000001291
       3
 i =        7, time =        3.500, E =       -17.1687544662
  O         0.0006822146        0.0615111494        0.0000001381
  H         0.8147027013        0.6054046633        0.0000007241
  H        -0.8256002459        0.6150123998       -0.0000001479
       3
 i =        8, time =        4.000, E =       -17.1687597708
  O         0.0003791030        0.0623216219        0.0000001335
  H         0.8161517985        0.6002614550        0.0000008267
  H        -0.8222565625        0.6067224782       -0.0000001653
       3
 i =        9, time =        4.500, E =       -17.1687372559
  O         0.0000220102        0.0630435700        0.0000001290
  H         0.8163447021        0.5960584142        0.0000009296
  H        -0.8168000653        0.5987916183       -0.0000001812
       3
 i =       10, time =        5.000, E =       -17.1686200295
  O        -0.0003468448        0.0636295731        0.0000001244
  H         0.8154350122        0.5929375390        0.0000010330
  H        -0.8100544356        0.5918180045       -0.0000001960
       3
 i =       11, time =        5.500, E =       -17.1684057394
  O        -0.0006797643        0.0640297926        0.0000001199
  H         0.8136241976        0.5910356341        0.0000011370
  H        -0.8029768704        0.5864459250       -0.0000002099
       3
 i =       12, time =        6.000, E =       -17.1681747512
  O        -0.0009299476        0.0641968941        0.0000001154
  H         0.8111427038        0.5904773606        0.0000012423
  H        -0.7965382490        0.5832957866       -0.0000002230
       3
 i =       13, time =        6.500, E =       -17.1680611261
  O        -0.0010595553        0.0640923873        0.0000001108
  H         0.8082260462        0.5913653763        0.0000013491
  H        -0.7915724630        0.5828733851       -0.0000002357
       3
 i =       14, time =        7.000, E =       -17.1681800283
  O        -0.0010478409        0.0636931930        0.0000001063
  H         0.8050892079        0.5937695810        0.0000014580
  H        -0.7886227658        0.5854761469       -0.0000002480
       3
 i =       15, time =        7.500, E =       -17.1685536683
  O        -0.0008964067        0.0629967441        0.0000001017
  H         0.8019014675        0.5977151450        0.0000015694
  H        -0.7878332786        0.5911243607       -0.0000002600
       3
 i =       16, time =        8.000, E =       -17.1690904449
  O        -0.0006292670        0.0620229197        0.0000000970
  H         0.7987656059        0.6031709356        0.0000016835
  H        -0.7889267596        0.5995431598       -0.0000002715
       3
 i =       17, time =        8.500, E =       -17.1696333417
  O        -0.0002874329        0.0608121552        0.0000000923
  H         0.7957057133        0.6100403085        0.0000018006
  H        -0.7912780412        0.6102024418       -0.0000002823
       3
 i =       18, time =        9.000, E =       -17.1700393409
  O         0.0000799061        0.0594204863        0.0000000874
  H         0.7926668094        0.6181564508        0.0000019205
  H        -0.7940534862        0.6223983064       -0.0000002921
       3
 i =       19, time =        9.500, E =       -17.1702370080
  O         0.0004244453        0.0579131720        0.0000000824
  H         0.7895272246        0.6272838220        0.0000020431
  H        -0.7963670460        0.6353473000       -0.0000003005
       3
 i =       20, time =       10.000, E =       -17.1702386000
  O         0.0007057311        0.0563582718        0.0000000773
  H         0.7861219471        0.6371276144        0.0000021677
  H        -0.7974137356        0.6482728884       -0.0000003074
       3
 i =       21, time =       10.500, E =       -17.1701158512
  O         0.0008949811        0.0548213375        0.0000000722
  H         0.7822732039        0.6473495661        0.0000022938
  H        -0.7965603507        0.6604732504       -0.0000003126
       3
 i =       22, time =       11.000, E =       -17.1699604908
  O         0.0009762513        0.0533612450        0.0000000671
  H         0.7778226262        0.6575902755        0.0000024207
  H        -0.7933956576        0.6713702429       -0.0000003162
       3
 i =       23, time =       11.500, E =       -17.1698468379
  O         0.0009458271        0.0520270449        0.0000000620
  H         0.7726615010        0.6674951423        0.0000025476
  H        -0.7877505892        0.6805395308       -0.0000003187
       3
 i =       24, time =       12.000, E =       -17.1698065910
  O         0.0008108832        0.0508556621        0.0000000570
  H         0.7667546954        0.6767392554        0.0000026739
  H        -0.7797008449        0.6877251936       -0.0000003203
       3
 i =       25, time =       12.500, E =       -17.1698194714
  O         0.0005879837        0.0498702049        0.0000000523
  H         0.7601569459        0.6850478310        0.0000027992
  H        -0.7695603504        0.6928451684       -0.0000003218
       3
 i =       26, time =       13.000, E =       -17.1698211782
  O         0.0003016613        0.0490788979        0.0000000478
  H         0.7530201844        0.6922103080        0.0000029233
  H        -0.7578683350        0.6959914551       -0.0000003242
       3
 i =       27, time =       13.500, E =       -17.1697287019
  O        -0.0000170734        0.0484748203        0.0000000437
  H         0.7455912752        0.6980882802        0.0000030465
  H        -0.7453655267        0.6974236862       -0.0000003285
       3
 i =       28, time =       14.000, E =       -17.1694791119
  O        -0.0003326560        0.0480368507        0.0000000399
  H         0.7381998070        0.7026178430        0.0000031693
  H        -0.7329503942        0.6975501520       -0.0000003358
       3
 i =       29, time =       14.500, E =       -17.1690688348
  O        -0.0006078219        0.0477323001        0.0000000366
  H         0.7312360606        0.7058067623        0.0000032926
  H        -0.7216078973        0.6968882848       -0.0000003477
       3
 i =       30, time =       15.000, E =       -17.1685735626
  O        -0.0008076940        0.0475217028        0.0000000336
  H         0.7251204568        0.7077253295        0.0000034176
  H        -0.7123114129        0.6959981370       -0.0000003654
       3
 i =       31, time =       15.500, E =       -17.1681311644
  O        -0.0009048068        0.0473654551        0.0000000311
  H         0.7202657213        0.7084915163        0.0000035458
  H        -0.7059065190        0.6953925765       -0.0000003903
       3
 i =       32, time =       16.000, E =       -17.1678859208
  O        -0.0008841640        0.0472313616        0.0000000290
  H         0.7170358367        0.7082505673        0.0000036787
  H        -0.7029924268        0.6954386149       -0.0000004236
       3
 i =       33, time =       16.500, E =       -17.1679190299
  O        -0.0007468362        0.0471012818        0.0000000273
  H         0.7157062642        0.7071512578        0.0000038176
  H        -0.7038264818        0.6962762957       -0.0000004661
       3
 i =       34, time =       17.000, E =       -17.1682079133
  O        -0.0005105796        0.0469748242        0.0000000259
  H         0.7164310795        0.7053225206        0.0000039637
  H        -0.7082814530        0.6977836987       -0.0000005181
       3
 i =       35, time =       17.500, E =       -17.1686416400
  O        -0.0002069336        0.0468689603        0.0000000248
  H         0.7192227550        0.7028547430        0.0000041175
  H        -0.7158708731        0.6996017366       -0.0000005796
       3
 i =       36, time =       18.000, E =       -17.1690796318
  O         0.0001243794        0.0468139050        0.0000000239
  H         0.7239482428        0.6997896067        0.0000042790
  H        -0.7258329828        0.7012093918       -0.0000006499
       3
 i =       37, time =       18.500, E =       -17.1694142910
  O         0.0004419872        0.0468468541        0.0000000233
  H         0.7303419545        0.6961202381        0.0000044476
  H        -0.7372453323        0.7020223802       -0.0000007278
       3
 i =       38, time =       19.000, E =       -17.1696055323
  O         0.0007086431        0.0470053306        0.0000000228
  H         0.7380323079        0.6918016202        0.0000046223
  H        -0.7491415124        0.7014878284       -0.0000008117
       3
 i =       39, time =       19.500, E =       -17.1696798777
  O         0.0008952057        0.0473215291        0.0000000226
  H         0.7465779657        0.6867680482        0.0000048013
  H        -0.7606123132        0.6991561058       -0.0000009001
       3
 i =       40, time =       20.000, E =       -17.1697042406
  O         0.0009826781        0.0478180949        0.0000000225
  H         0.7555083927        0.6809547842        0.0000049831
  H        -0.7708828387        0.6947259266       -0.0000009911
       3
 i =       41, time =       20.500, E =       -17.1697503135
  O         0.0009627993        0.0485054298        0.0000000227
  H         0.7643638563        0.6743190595        0.0000051657
  H        -0.7793641885        0.6880663503       -0.0000010828
       3
 i =       42, time =       21.000, E =       -17.1698629508
  O         0.0008377597        0.0493801433        0.0000000230
  H         0.7727313759        0.6668583919        0.0000053476
  H        -0.7856831781        0.6792241479       -0.0000011737
       3
 i =       43, time =       21.500, E =       -17.1700402779
  O         0.0006196386        0.0504244031        0.0000000235
  H         0.7802728333        0.6586238090        0.0000055274
  H        -0.7896980763        0.6684233668       -0.0000012624
       3
 i =       44, time =       22.000, E =       -17.1702298860
  O         0.0003297684        0.0516059938        0.0000000243
  H         0.7867444091        0.6497273695        0.0000057044
  H        -0.7915059067        0.6560601954       -0.0000013480
       3
 i =       45, time =       22.500, E =       -17.1703438841
  O        -0.0000020575        0.0528791245        0.0000000252
  H         0.7920076642        0.6403435835        0.0000058785
  H        -0.7914409108        0.6426901521       -0.0000014300
       3
 i =       46, time =       23.000, E =       -17.1702923397
  O        -0.0003389437        0.0541861963        0.0000000263
  H         0.7960334341        0.6307051519        0.0000060503
  H        -0.7900578162        0.6290004563       -0.0000015082
       3
 i =       47, time =       23.500, E =       -17.1700262718
  O        -0.0006394545        0.0554609120        0.0000000275
  H         0.7988985338        0.6210938615        0.0000062212
  H        -0.7880889201        0.6157618674       -0.0000015833
       3
 i =       48, time =       24.000, E =       -17.1695723041
  O        -0.0008620047        0.0566329768        0.0000000286
  H         0.8007751452        0.6118283655        0.0000063932
  H        -0.7863645177        0.6037612288       -0.0000016559
       3
 i =       49, time =       24.500, E =       -17.1690370995
  O        -0.0009711483        0.0576344040        0.0000000297
  H         0.8019111136        0.6032491442        0.0000065690
  H        -0.7856937374        0.5937190279       -0.0000017271
       3
 i =       50, time =       25.000, E =       -17.1685682044
  O        -0.0009449602        0.0584067040        0.0000000306
  H         0.8026007875        0.5957008641        0.0000067518
  H        -0.7867183100        0.5861999855       -0.0000017977
       3
 i =       51, time =       25.500, E =       -17.1682841346
  O        -0.0007812311        0.0589076062        0.0000000311
  H         0.8031459867        0.5895100959        0.0000069450
  H        -0.7897750393        0.5815338163       -0.0000018677
       3
 i =       52, time =       26.000, E =       -17.1682164115
  O        -0.0005000070        0.0591155311        0.0000000309
  H         0.8038111339        0.5849595408        0.0000071517
  H        -0.7948107065        0.5797713585       -0.0000019366
       3
 i =       53, time =       26.500, E =       -17.1683048011
  O        -0.0001407279        0.0590306765        0.0000000297
  H         0.8047782839        0.5822608589        0.0000073745
  H        -0.8013829549        0.5806937081       -0.0000020027
       3
 i =       54, time =       27.000, E =       -17.1684456517
  O         0.0002454779        0.0586727070        0.0000000275
  H         0.8061108885        0.5815310874        0.0000076149
  H        -0.8087462430        0.5838714209       -0.0000020636
       3
 i =       55, time =       27.500, E =       -17.1685541474
  O         0.0006057126        0.0580761448        0.0000000239
  H         0.8077354361        0.5827781185        0.0000078732
  H        -0.8159899747        0.5887517446       -0.0000021164
       3
 i =       56, time =       28.000, E =       -17.1686013072
  O         0.0008943125        0.0572849247        0.0000000188
  H         0.8094455721        0.5858988170        0.0000081480
  H        -0.8221842616        0.5947470294       -0.0000021583
       3
 i =       57, time =       28.500, E =       -17.1686146089
  O         0.0010788182        0.0563471898        0.0000000123
  H         0.8109295401        0.5906907078        0.0000084370
  H        -0.8265016936        0.6013057820       -0.0000021868
       3
 i =       58, time =       29.000, E =       -17.1686539983
  O         0.0011424031        0.0553108675        0.0000000045
  H         0.8118145274        0.5968746570        0.0000087366
  H        -0.8283010848        0.6079598590       -0.0000022001
       3
 i =       59, time =       29.500, E =       -17.1687805473
  O         0.0010834685        0.0542201722       -0.0000000044
  H         0.8117188942        0.6041231848        0.0000090424
  H        -0.8271745864        0.6143505986       -0.0000021971
       3
 i =       60, time =       30.000, E =       -17.1690294683
  O         0.0009137029        0.0531128406       -0.0000000141
  H         0.8103026095        0.6120897565        0.0000093504
  H        -0.8229680819        0.6202417275       -0.0000021779
       3
 i =       61, time =       30.500, E =       -17.1693936051
  O         0.0006555321        0.0520180071       -0.0000000244
  H         0.8073100086        0.6204352192        0.0000096565
  H        -0.8157831898        0.6255247071       -0.0000021432
       3
 i =       62, time =       31.000, E =       -17.1698204154
  O         0.0003395300        0.0509546419       -0.0000000349
  H         0.8026014578        0.6288498187        0.0000099576
  H        -0.8059664641        0.6302196514       -0.0000020952
       3
 i =       63, time =       31.500, E =       -17.1702235911
  O         0.0000018667        0.0499306417       -0.0000000452
  H         0.7961733022        0.6370709863        0.0000102518
  H        -0.7940873405        0.6344712079       -0.0000020365
       3
 i =       64, time =       32.000, E =       -17.1705078594
  O        -0.0003184592        0.0489427859       -0.0000000552
  H         0.7881667682        0.6448972858        0.0000105385
  H        -0.7809036047        0.6385355521       -0.0000019709
       3
 i =       65, time =       32.500, E =       -17.1706018427
  O        -0.0005830073        0.0479779306       -0.0000000645
  H         0.7788665063        0.6521982936        0.0000108190
  H        -0.7673097299        0.6427527242       -0.0000019027
       3
 i =       66, time =       33.000, E =       -17.1704881568
  O        -0.0007581672        0.0470158458       -0.0000000732
  H         0.7686886452        0.6589189596        0.0000110961
  H        -0.7542599673        0.6474986438       -0.0000018367
       3
 i =       67, time =       33.500, E =       -17.1702139019
  O        -0.0008200270        0.0460338374       -0.0000000810
  H         0.7581554374        0.6650759496        0.0000113743
  H        -0.7426630295        0.6531165146       -0.0000017780
       3
 i =       68, time =       34.000, E =       -17.1698690466
  O        -0.0007590025        0.0450126981       -0.0000000881
  H         0.7478551348        0.6707446471        0.0000116591
  H        -0.7332625902        0.6598359935       -0.0000017311
       3
 i =       69, time =       34.500, E =       -17.1695415749
  O        -0.0005826053        0.0439428438       -0.0000000946
  H         0.7383866510        0.6760353926        0.0000119570
  H        -0.7265359731        0.6677001871       -0.0000017005
       3
 i =       70, time =       35.000, E =       -17.1692777504
  O        -0.0003150642        0.0428290138       -0.0000001007
  H         0.7302964496        0.6810610018        0.0000122743
  H        -0.7226400530        0.6765245538       -0.0000016894
       3
 i =       71, time =       35.500, E =       -17.1690724086
  O         0.0000066620        0.0416922142       -0.0000001065
  H         0.7240185414        0.6859003134        0.0000126165
  H        -0.7214181494        0.6859038843       -0.0000017006
       3
 i =       72, time =       36.000, E =       -17.1688901907
  O         0.0003394683        0.0405684744       -0.0000001122
  H         0.7198291024        0.6905654720        0.0000129871
  H        -0.7224602934        0.6952654244       -0.0000017356
       3
 i =       73, time =       36.500, E =       -17.1686982165
  O         0.0006413291        0.0395049921       -0.0000001177
  H         0.7178236884        0.6949811947        0.0000133874
  H        -0.7251943826        0.7039496971       -0.0000017952
       3
 i =       74, time =       37.000, E =       -17.1684896508
  O         0.0008772687        0.0385548378       -0.0000001231
  H         0.7179199431        0.6989812531        0.0000138159
  H        -0.7289823711        0.7112952997       -0.0000018795
       3
 i =       75, time =       37.500, E =       -17.1682899059
  O         0.0010230038        0.0377712530       -0.0000001279
  H         0.7198833524        0.7023236910        0.0000142688
  H        -0.7332029579        0.7167114734       -0.0000019879
       3
 i =       76, time =       38.000, E =       -17.1681478189
  O         0.0010661583        0.0372023815       -0.0000001320
  H         0.7233693310        0.7047206995        0.0000147404
  H        -0.7373129063        0.7197306617       -0.0000021194
       3
 i =       77, time =       38.500, E =       -17.1681180022
  O         0.0010057811        0.0368868746       -0.0000001350
  H         0.7279714674        0.7058753481        0.0000152236
  H        -0.7408883081        0.7200417041       -0.0000022726
       3
 i =       78, time =       39.000, E =       -17.1682408951
  O         0.0008508912        0.0368505094       -0.0000001364
  H         0.7332686307        0.7055187488        0.0000157113
  H        -0.7436496595        0.7175067857       -0.0000024462
       3
 i =       79, time =       39.500, E =       -17.1685258128
  O         0.0006188265        0.0371038111       -0.0000001360
  H         0.7388653401        0.7034417095        0.0000161966
  H        -0.7454769014        0.7121673707       -0.0000026388
       3
 i =       80, time =       40.000, E =       -17.1689418855
  O         0.0003336988        0.0376406441       -0.0000001332
  H         0.7444235006        0.6995184881        0.0000166741
  H        -0.7464169069        0.7042418295       -0.0000028492
       3
 i =       81, time =       40.500, E =       -17.1694205636
  O         0.0000249826        0.0384377725       -0.0000001281
  H         0.7496853961        0.6937222084        0.0000171401
  H        -0.7466836101        0.6941158954       -0.0000030766
       3
 i =       82, time =       41.000, E =       -17.1698711787
  O        -0.0002740396        0.0394555004       -0.0000001206
  H         0.7544886176        0.6861328647        0.0000175930
  H        -0.7466474672        0.6823247915       -0.0000033204
       3
 i =       83, time =       41.500, E =       -17.1702078273
  O        -0.0005284052        0.0406396628       -0.0000001107
  H         0.7587738155        0.6769392766        0.0000180339
  H        -0.7468085021        0.6695238844       -0.0000035808
       3
 i =       84, time =       42.000, E =       -17.1703800106
  O        -0.0007046660        0.0419252682       -0.0000000986
  H         0.7625848146        0.6664353000        0.0000184666
  H        -0.7477449623        0.6564411051       -0.0000038584
       3
 i =       85, time =       42.500, E =       -17.1703927534
  O        -0.0007753266        0.0432418777       -0.0000000846
  H         0.7660603759        0.6550090184        0.0000188974
  H        -0.7500340045        0.6438060244       -0.0000041537
       3
 i =       86, time =       43.000, E =       -17.1703003863
  O        -0.0007241168        0.0445203469       -0.0000000693
  H         0.7694157653        0.6431218384        0.0000193349
  H        -0.7541492854        0.6322607701       -0.0000044668
       3
 i =       87, time =       43.500, E =       -17.1701718694
  O        -0.0005508096        0.0456998468       -0.0000000533
  H         0.7729128253        0.6312758177        0.0000197895
  H        -0.7603542247        0.6222739046       -0.0000047969
       3
 i =       88, time =       44.000, E =       -17.1700487366
  O        -0.0002737275        0.0467337170       -0.0000000376
  H         0.7768184749        0.6199708979        0.0000202723
  H        -0.7686210423        0.6140844565       -0.0000051411
       3
 i =       89, time =       44.500, E =       -17.1699254848
  O         0.0000716764        0.0475927903       -0.0000000231
  H         0.7813548933        0.6096592695        0.0000207936
  H        -0.7786047823        0.6076938750       -0.0000054941
       3
 i =       90, time =       45.000, E =       -17.1697643673
  O         0.0004384258        0.0482656674       -0.0000000107
  H         0.7866488862        0.6007048777        0.0000213616
  H        -0.7896840213        0.6029054005       -0.0000058484
       3
 i =       91, time =       45.500, E =       -17.1695289214
  O         0.0007763656        0.0487563897       -0.0000000014
  H         0.7926911161        0.5933543491        0.0000219811
  H        -0.8010541836        0.5993944437       -0.0000061947
       3
 i =       92, time =       46.000, E =       -17.1692110415
  O         0.0010407478        0.0490805245        0.0000000042
  H         0.7993160836        0.5877235672        0.0000226525
  H        -0.8118423896        0.5967869825       -0.0000065226
       3
 i =       93, time =       46.500, E =       -17.1688391994
  O         0.0011988773        0.0492606688        0.0000000057
  H         0.8062081441        0.5838017021        0.0000233715
  H        -0.8212154702        0.5947276680       -0.0000068216
       3
 i =       94, time =       47.000, E =       -17.1684701317
  O         0.0012335754        0.0493220871        0.0000000031
  H         0.8129343159        0.5814716117        0.0000241297
  H        -0.8284658664        0.5929280899       -0.0000070823
       3
 i =       95, time =       47.500, E =       -17.1681713292
  O         0.0011436822        0.0492888631       -0.0000000033
  H         0.8189956478        0.5805411823        0.0000249157
  H        -0.8330724052        0.5911955982       -0.0000072968
       3
 i =       96, time =       48.000, E =       -17.1680009535
  O         0.0009423899        0.0491808032       -0.0000000131
  H         0.8238872169        0.5807785949        0.0000257170
  H        -0.8347365384        0.5894465216       -0.0000074597
       3
 i =       97, time =       48.500, E =       -17.1679902479
  O         0.0006545832        0.0490110593       -0.0000000257
  H         0.8271558537        0.5819458326        0.0000265208
  H        -0.8333994146        0.5877099286       -0.0000075678
       3
 i =       98, time =       49.000, E =       -17.1681333391
  O         0.0003138378        0.0487845398       -0.0000000403
  H         0.8284490232        0.5838265950        0.0000273164
  H        -0.8292429635        0.5861248858       -0.0000076212
       3
 i =       99, time =       49.500, E =       -17.1683885565
  O        -0.0000406375        0.0484971145       -0.0000000564
  H         0.8275510530        0.5862474384        0.0000280961
  H        -0.8226762415        0.5849320036       -0.0000076224
       3
 i =      100, time =       50.000, E =       -17.1686930840
  O        -0.0003672693        0.0481357209       -0.0000000732
  H         0.8244058939        0.5890924953        0.0000288561
  H        -0.8143044160        0.5844571960       -0.0000075767
       3
 i =      101, time =       50.500, E =       -17.1689873619
  O        -0.0006259325        0.0476795890       -0.0000000904
  H         0.8191264545        0.5923122644        0.0000295974
  H        -0.8048759951        0.5850836768       -0.0000074919
       3
 i =      102, time =       51.000, E =       -17.1692390567
  O        -0.0007825953        0.0471027736       -0.0000001077
  H         0.8119908322        0.5959269648        0.0000303265
  H        -0.7952056243        0.5872086841       -0.0000073772
       3
 i =      103, time =       51.500, E =       -17.1694532189
  O        -0.0008145093        0.0463781466       -0.0000001251
  H         0.8034240103        0.6000228354        0.0000310545
  H        -0.7860761066        0.5911842530       -0.0000072425
       3
 i =      104, time =       52.000, E =       -17.1696601648
  O        -0.0007150214        0.0454825397       -0.0000001432
  H         0.7939638389        0.6047396552        0.0000317975
  H        -0.7781310400        0.5972487084       -0.0000070974
       3
 i =      105, time =       52.500, E =       -17.1698866323
  O        -0.0004963454        0.0444022832       -0.0000001624
  H         0.7842114414        0.6102470405        0.0000325743
  H        -0.7717814047        0.6054630522       -0.0000069503
       3
 i =      106, time =       53.000, E =       -17.1701292237
  O        -0.0001888559        0.0431379436       -0.0000001836
  H         0.7747682824        0.6167094028        0.0000334047
  H        -0.7671509027        0.6156705017       -0.0000068076
       3
 i =      107, time =       53.500, E =       -17.1703484675
  O         0.0001637757        0.0417071825       -0.0000002076
  H         0.7661655039        0.6242417847        0.0000343068
  H        -0.7640792865        0.6274927405       -0.0000066740
       3
 i =      108, time =       54.000, E =       -17.1704853201
  O         0.0005125613        0.0401451009       -0.0000002350
  H         0.7587973967        0.6328641005        0.0000352935
  H        -0.7621815108        0.6403653078       -0.0000065528
       3
 i =      109, time =       54.500, E =       -17.1704871640
  O         0.0008119379        0.0385020904       -0.0000002659
  H         0.7528749975        0.6424652115        0.0000363701
  H        -0.7609414467        0.6536034774       -0.0000064467
       3
 i =      110, time =       55.000, E =       -17.1703289870
  O         0.0010268170        0.0368397108       -0.0000003000
  H         0.7484126527        0.6527882966        0.0000375332
  H        -0.7598121739        0.6664833694       -0.0000063583
       3
 i =      111, time =       55.500, E =       -17.1700226327
  O         0.0011363941        0.0352253589       -0.0000003362
  H         0.7452507784        0.6634440415        0.0000387709
  H        -0.7583005346        0.6783198903       -0.0000062909
       3
 i =      112, time =       56.000, E =       -17.1696142199
  O         0.0011346174        0.0337265106       -0.0000003730
  H         0.7431064869        0.6739491285        0.0000400640
  H        -0.7560257597        0.6885259549       -0.0000062487
       3