#     Step Nr.          Time[fs]        Kin.[a.u.]          Temp[K]            Pot.[a.u.]        Cons Qty[a.u.]        UsedTime[s]
         0            0.000000        41.098341811       204.492573130      -311.012162719      -269.903219917         0.000000000
         1            0.500000        42.375214183       210.845893128      -311.526587900      -269.937083207         2.827107466
         2            1.000000        44.528014342       221.557557506      -312.956854119      -269.990285681         0.747043596
         3            1.500000        46.729216779       232.510056568      -314.531816772      -270.012247004         0.712722373
         4            2.000000        48.785516670       242.741565610      -315.928696783      -269.996782739         0.732527475
         5            2.500000        50.654807494       252.042575669      -317.372088993      -269.986251001         0.729949771
         6            3.000000        52.580470314       261.624075257      -319.004498876      -270.016645100         0.729811143
         7            3.500000        54.438917065       270.871128579      -320.364209338      -270.069410740         0.730201661
         8            4.000000        54.989118809       273.608761421      -320.645749651      -270.092344905         0.747939186
         9            4.500000        54.048302636       268.927552603      -319.480703807      -270.060657565         0.746187763
        10            5.000000        52.368118670       260.567479486      -317.315181559      -270.005833204         0.757594604
        11            5.500000        50.435232166       250.950037094      -314.954600888      -269.977759050         0.747003670
        12            6.000000        48.723979486       242.435375713      -312.842520980      -269.986819652         1.050980494
        13            6.500000        47.335780757       235.528130372      -310.893370425      -269.995205848         0.744802995
        14            7.000000        46.077653293       229.268079210      -309.031933223      -269.967221181         0.743776536
        15            7.500000        45.594392377       226.863523112      -307.704107790      -269.915502653         0.742965651
        16            8.000000        46.228643131       230.019357703      -307.689791151      -269.890697605         0.740728389
        17            8.500000        48.345281691       240.551093207      -309.364357338      -269.924568168         0.727320937
        18            9.000000        51.406345049       255.781992924      -312.208219727      -269.990264234         0.743948370
        19            9.500000        54.764724848       272.492246825      -315.204268891      -270.032878443         0.727018576
        20           10.000000        57.321959416       285.216251098      -317.654514951      -270.030890799         0.728815320
        21           10.500000        59.277602010       294.946920720      -319.516505405      -270.015981504         0.766769776
        22           11.000000        60.915357796       303.095884402      -320.956899740      -270.029197431         0.741809103
        23           11.500000        61.587959655       306.442542170      -321.752252619      -270.066497267         1.028246155
        24           12.000000        61.148782678       304.257334053      -321.360180525      -270.081563885         0.726590103
        25           12.500000        59.451306462       295.811220080      -319.586632852      -270.043508728         0.740224035
        26           13.000000        57.005382740       283.641063970      -317.027050089      -269.976782909         0.738969153
        27           13.500000        54.921954535       273.274572873      -314.691168131      -269.937931754         0.899011649
        28           14.000000        53.712755113       267.257972438      -313.162778682      -269.950402915         0.737728836
        29           14.500000        53.113988993       264.278698353      -312.261215844      -269.978887873         0.739413063
        30           15.000000        52.742854923       262.432050590      -311.559156968      -269.975108667         0.737658220
        31           15.500000        52.634417951       261.892501930      -311.087791085      -269.937562140         0.724220115
        32           16.000000        53.391513374       265.659573402      -311.373347982      -269.912583019         0.737397891
        33           16.500000        54.989611272       273.611211761      -312.762237427      -269.937865952         0.737570393
        34           17.000000        57.081609349       284.020343883      -314.876849884      -269.995544198         0.737352017
        35           17.500000        58.935421142       293.244335092      -316.875832088      -270.033722779         0.785512951
        36           18.000000        60.327751747       300.172139368      -318.223276761      -270.027943350         0.749713465
        37           18.500000        61.283632471       304.928304708      -319.028094094      -270.008574147         1.027731450
        38           19.000000        61.847299464       307.732936443      -319.593552700      -270.019004118         0.727909168
        39           19.500000        62.067694349       308.829552881      -319.768712009      -270.059172371         0.739615486
        40           20.000000        61.061237003       303.821733992      -318.957142345      -270.083191423         0.743027482
        41           20.500000        58.878652268       292.961870824      -316.802954269      -270.053634910         0.755631596
        42           21.000000        56.012828758       278.702423898      -313.741886065      -269.987322424         0.740719719
        43           21.500000        53.305062939       265.229422913      -310.765962737      -269.936577713         0.740425610
        44           22.000000        51.475291889       256.125050965      -308.651970048      -269.932173688         0.741111598
        45           22.500000        50.635575130       251.946881404      -307.508672299      -269.953900276         0.740847233
        46           23.000000        50.651448893       252.025864313      -307.056002366      -269.959474945         0.739715892
        47           23.500000        51.356370763       255.533336409      -307.238301627      -269.938203390         0.738850751
        48           24.000000        52.771251744       262.573344347      -308.379028404      -269.924941207         0.739375773
        49           24.500000        55.217137111       274.743309612      -310.661502404      -269.954034472         0.752435872
        50           25.000000        58.021131546       288.695114276      -313.622361842      -270.015206841         1.008828426
        51           25.500000        60.412131163       300.591985110      -316.295563366      -270.060132245         0.726956539
        52           26.000000        61.873826515       307.864926803      -317.957046761      -270.056931741         0.722106236
        53           26.500000        62.443997336       310.701919565      -318.604468044      -270.025141962         0.753889654
        54           27.000000        62.555704793       311.257741146      -318.666650173      -270.010333898         0.738716839
        55           27.500000        62.174512612       309.361047352      -318.342266698      -270.028160496         0.736877451
        56           28.000000        61.205589775       304.539988511      -317.379257021      -270.046797566         0.739088924
        57           28.500000        59.329696094       295.206124688      -315.532179947      -270.027498888         0.737171563
        58           29.000000        57.042573514       283.826113701      -313.127988385      -269.973127620         0.737189343
        59           29.500000        55.165205027       274.484911701      -311.000379849      -269.928895372         0.739445707
        60           30.000000        54.096557270       269.167652663      -309.819819528      -269.929033304         0.722817668
        61           30.500000        54.088914050       269.129622373      -309.587185417      -269.957494496         0.736540508
        62           31.000000        54.681530823       272.078299216      -309.868447006      -269.970223564         0.739919277
        63           31.500000        55.409343011       275.699666421      -310.441709380      -269.952430387         1.041497097
        64           32.000000        56.597470671       281.611420318      -311.528592524      -269.935472366         0.742846176
        65           32.500000        58.354708706       290.354890530      -313.345843397      -269.958377167         0.755805301
        66           33.000000        60.302214836       300.045075637      -315.538850055      -270.015948147         0.746743096
        67           33.500000        61.713403861       307.066713547      -317.272948648      -270.061611378         0.739818441
        68           34.000000        62.372411348       310.345729945      -317.916251804      -270.061345494         0.781783519
        69           34.500000        62.067954110       308.830845369      -317.523094105      -270.029977943         0.739825247
        70           35.000000        61.136043995       304.193950331      -316.602611872      -270.011578544         0.754797606
        71           35.500000        59.974603202       298.414981986      -315.461638139      -270.024489441         0.740186840
        72           36.000000        58.476001631       290.958406418      -313.928088195      -270.040403533         0.740857074
        73           36.500000        56.491411953       281.083705104      -311.772361019      -270.022031235         0.740069667
        74           37.000000        54.299597292       270.177916696      -309.258474464      -269.970228139         0.723829734
        75           37.500000        52.562520376       261.534761942      -307.143217409      -269.926077792         1.019376145
        76           38.000000        51.980094918       258.636793918      -306.084749162      -269.924708556         0.725912209
        77           38.500000        52.345385592       260.454366757      -306.124720629      -269.955987208         0.742223233
        78           39.000000        53.428399465       265.843107127      -306.828087543      -269.978981924         0.723570793
        79           39.500000        54.831543127       272.824713810      -307.873656692      -269.972169428         0.723477171
        80           40.000000        56.409906701       280.678160310      -309.360308003      -269.958111787         0.724285968
        81           40.500000        58.589241669       291.521853648      -311.479204384      -269.974568735         0.722054979
        82           41.000000        60.933101800       303.184173054      -313.960790256      -270.025022527         0.720767912
        83           41.500000        62.666424609       311.808648533      -316.007385237      -270.070058558         0.708424739
        84           42.000000        63.450349614       315.709215671      -316.911781192      -270.070861238         0.720808353
        85           42.500000        63.246637085       314.695605453      -316.617868857      -270.034189861         0.721318307
        86           43.000000        62.398826006       310.477161072      -315.634401778      -270.001669698         1.012328006
        87           43.500000        61.297444440       304.997028773      -314.432817633      -270.000645547         0.742260192
        88           44.000000        59.839921914       297.744849762      -313.046737263      -270.013462554         0.738509256
        89           44.500000        58.129248082       289.233068551      -311.328201226      -270.002868908         0.749498521
        90           45.000000        56.529737671       281.274401966      -309.479745194      -269.961665020         0.738995267
        91           45.500000        55.430898892       275.806921784      -308.146408810      -269.925468905         0.725283011
        92           46.000000        55.338618625       275.347763861      -307.880528029      -269.930760569         0.725143083
        93           46.500000        56.205401041       279.660603717      -308.600915948      -269.969411123         0.723463694
        94           47.000000        57.440970428       285.808412899      -309.714697052      -269.997785043         0.740135873
        95           47.500000        58.614087437       291.645478466      -310.762812296      -269.990306818         0.740776207
        96           48.000000        59.745839571       297.276725272      -311.811029626      -269.969227122         0.723019813
        97           48.500000        60.877843326       302.909224062      -313.134828493      -269.976004495         0.739034406
        98           49.000000        62.087343902       308.927322949      -314.616725727      -270.018984481         0.739975941
        99           49.500000        62.765074556       312.299500003      -315.638805413      -270.061201177         1.022024569
       100           50.000000        62.532051121       311.140047827      -315.623803905      -270.063820264         0.742444412
       101           50.500000        61.690372383       306.952116069      -314.588594810      -270.031690614         0.742789024
       102           51.000000        60.220640896       299.639189069      -313.056328810      -270.003126147         0.736629585
       103           51.500000        58.724977585       292.197233368      -311.486217204      -270.003998219         0.751554445
       104           52.000000        57.339320441       285.302634163      -309.882607761      -270.016028033         0.738113906
       105           52.500000        55.627178431       276.783547752      -308.073544476      -270.003009920         0.722892183
       106           53.000000        54.104956513       269.209444683      -306.247660226      -269.958886086         0.737905493
       107           53.500000        53.211421102       264.763490240      -305.045940883      -269.918855256         0.736853646
       108           54.000000        53.550729968       266.451785683      -305.048572059      -269.921806964         0.739469206
       109           54.500000        54.974962539       273.538324222      -306.212905266      -269.965228313         0.720244617
       110           55.000000        56.805363727       282.645831540      -307.903176547      -270.007557494         1.023179507
       111           55.500000        58.579531001       291.473536383      -309.496611205      -270.014779873         0.739676937
       112           56.000000        60.081968687       298.949199264      -310.883303979      -269.997963655         0.890255595
       113           56.500000        61.359393736       305.305269212      -312.300537178      -269.996005274         0.734993041
       114           57.000000        62.525153991       311.105729853      -313.752760439      -270.025916432         0.722824185
       115           57.500000        63.374800549       315.333307005      -314.769059499      -270.059740744         0.735347575
       116           58.000000        63.259957021       314.761881313      -314.814657522      -270.057966221         0.744320560
       117           58.500000        62.282990952       309.900801851      -313.878814888      -270.018325166         0.738510503
       118           59.000000        61.086734775       303.948602981      -312.515206833      -269.979982574         0.721907441
       119           59.500000        59.774893557       297.421288872      -311.273907216      -269.977113815         0.861805063
       120           60.000000        58.677811071       291.962547458      -310.206709064      -269.998800632         0.723998416
       121           60.500000        57.612754285       286.663155972      -309.026043355      -270.002906539         1.047077786
       122           61.000000        56.419792647       280.727349702      -307.713166661      -269.970292620         0.741024113
       123           61.500000        55.795169335       277.619418271      -306.787071548      -269.929912445         0.723765315
       124           62.000000        56.003124501       278.654138533      -306.864814355      -269.925982494         0.737596228
       125           62.500000        57.241975051       284.818273763      -308.006764241      -269.965415807         0.737593277
       126           63.000000        58.804433111       292.592579368      -309.614479122      -270.008293670         0.724115003
       127           63.500000        60.193901503       299.506142162      -311.017220679      -270.016956535         0.721994007
       128           64.000000        61.158104868       304.303718375      -312.043766606      -269.999383473         0.721993557
       129           64.500000        61.707437062       307.037024609      -312.915680861      -269.995548509         0.739025906
       130           65.000000        62.138611551       309.182414830      -313.678409988      -270.025435156         0.740040876
       131           65.500000        62.156116932       309.269516165      -313.918602503      -270.061500299         0.737414913
       132           66.000000        61.216101782       304.592292990      -313.161347455      -270.061869125         0.740646623
       133           66.500000        59.658243983       296.840876855      -311.472471962      -270.020970011         0.720794542
       134           67.000000        57.940365437       288.293247227      -309.516924237      -269.977758232         1.020478198
       135           67.500000        56.720378079       282.222969376      -307.973721873      -269.970502148         0.756958671
       136           68.000000        55.882204223       278.052476820      -306.969437704      -269.993224309         0.735711425
       137           68.500000        55.342392022       275.366539112      -306.166974642      -270.004620575         0.736487777
       138           69.000000        54.861081539       272.971687766      -305.380055128      -269.980359027         0.724399704
       139           69.500000        54.771813794       272.527519217      -304.938810819      -269.943132904         0.736934702
       140           70.000000        55.422081320       275.763048285      -305.368380153      -269.936938219         0.735589649
       141           70.500000        57.049344495       283.859803999      -306.746094140      -269.974413897         0.725738182
       142           71.000000        58.890209573       293.019376379      -308.515587933      -270.020890289         0.722110605
       143           71.500000        60.334509830       300.205765486      -309.996607106      -270.034461942         0.723503301
       144           72.000000        61.285653973       304.938363071      -310.993439655      -270.014202837         0.749132203
       145           72.500000        61.963748114       308.312348727      -311.803570404      -269.999432654         0.724045732
       146           73.000000        62.537871561       311.169008530      -312.634948994      -270.018930366         0.737226704
       147           73.500000        62.833966736       312.642286075      -313.179987149      -270.054370649         1.023403239
       148           74.000000        62.402117382       310.493537933      -312.894009188      -270.060945316         0.739626271
       149           74.500000        61.237738460       304.699950374      -311.650055820      -270.021390109         0.815168068
       150           75.000000        59.796707640       297.529828967      -310.004339478      -269.969635721         0.722746082
       151           75.500000        58.601883030       291.584753130      -308.706204089      -269.951868164         0.707267708
       152           76.000000        57.866495532       287.925693539      -308.022718751      -269.975085564         0.738582205
       153           76.500000        57.378605632       285.498105063      -307.635958716      -269.999947131         0.749543434
       154           77.000000        57.014069026       283.684284231      -307.215350256      -269.990526346         0.735974267
       155           77.500000        56.880419360       283.019285035      -306.928957008      -269.958118186         0.737738192
       156           78.000000        57.369488601       285.452741548      -307.273121789      -269.947504973         0.738001953
       157           78.500000        58.677101652       291.959017613      -308.409243493      -269.979538296         0.741329200
       158           79.000000        60.036541340       298.723166906      -309.851133237      -270.025617469         0.737984610
       159           79.500000        61.049779127       303.764723160      -310.895539036      -270.039867257         1.022199933
       160           80.000000        61.268277713       304.851904203      -311.297804284      -270.016050681         0.740962979
       161           80.500000        61.391947923       305.467248724      -311.377260086      -269.992533766         0.740540775
       162           81.000000        61.300009911       305.009793756      -311.463785267      -270.005334895         0.746822097
       163           81.500000        61.049390713       303.762790532      -311.380738180      -270.042677853         0.720219316
       164           82.000000        60.129346338       299.184935727      -310.616491188      -270.058774476         0.724363538
       165           82.500000        58.594722984       291.549126967      -308.988537328      -270.028153988         0.852131956
       166           83.000000        56.890810998       283.070990600      -307.000220297      -269.976475043         0.738480187
       167           83.500000        55.636616136       276.830506838      -305.454314394      -269.951303933         0.748183759
       168           84.000000        55.214444208       274.729910561      -304.734517481      -269.967746055         0.736056462
       169           84.500000        55.226492806       274.789860639      -304.599676513      -269.993545297         0.736550869
       170           85.000000        55.554762449       276.423228340      -304.655703108      -269.990560417         0.738119668
       171           85.500000        56.019476230       278.735499653      -304.909936450      -269.962864353         0.736600091
       172           86.000000        56.991426924       283.571624170      -305.734625116      -269.950611082         1.016432210
       173           86.500000        58.629714796       291.723235344      -307.278122851      -269.980959270         0.745335716
       174           87.000000        60.352481304       300.295185956      -309.074025687      -270.031889453         0.740472236
       175           87.500000        61.538146081       306.194685314      -310.369159918      -270.055776024         0.832451948
       176           88.000000        61.992313805       308.454482727      -310.821559597      -270.033061137         0.742512270
       177           88.500000        61.730723734       307.152891851      -310.771265951      -269.996355980         0.746584946
       178           89.000000        61.538755693       306.197718551      -310.760017593      -269.989962380         0.725000912
       179           89.500000        61.429279826       305.653000670      -310.874996147      -270.018349431         0.728547009
       180           90.000000        61.047662907       303.754193510      -310.680273706      -270.041344792         0.725578723
       181           90.500000        60.265431946       299.862055410      -309.811154956      -270.023091560         0.740513168
       182           91.000000        59.232299604       294.721510034      -308.503393396      -269.977116322         0.799208634
       183           91.500000        58.233260576       289.750602389      -307.413720799      -269.949178719         0.728149600
       184           92.000000        57.772970647       287.460342786      -306.950010460      -269.964000063         1.008983920
       185           92.500000        57.825720537       287.722809840      -306.908897806      -269.995483683         0.762688885
       186           93.000000        57.844731554       287.817402751      -306.860890896      -270.000958086         0.736695991
       187           93.500000        57.851037256       287.848777963      -306.761075217      -269.973384243         0.736548427
       188           94.000000        58.379805966       290.479766693      -307.040100539      -269.951683821         0.721106743
       189           94.500000        59.485452729       295.981121288      -308.027951374      -269.972102232         0.723790569
       190           95.000000        60.867830925       302.859405469      -309.414881170      -270.022460668         0.720834419
       191           95.500000        61.707685209       307.038259313      -310.433683265      -270.054673297         0.722090025
       192           96.000000        61.786687210       307.431348710      -310.583859931      -270.040918623         0.721225042
       193           96.500000        61.185523505       304.440144988      -310.044789320      -270.004695159         0.738384700
       194           97.000000        60.377831513       300.421320713      -309.342620236      -269.990544114         0.737192957
       195           97.500000        59.546701276       296.285875016      -308.704865384      -270.010854779         0.737750652
       196           98.000000        58.795227661       292.546775913      -307.873475515      -270.032595803         1.026385144
       197           98.500000        57.687835155       287.036735044      -306.582614562      -270.019973502         0.745687308
       198           99.000000        56.542563248       281.338218048      -305.067807561      -269.978829271         0.741599807
       199           99.500000        55.735545048       277.322746352      -303.969275913      -269.950413578         0.741942726
       200          100.000000        55.614281441       276.719376341      -303.722805645      -269.962801683         0.707168669
       201          100.500000        56.145337275       279.361745090      -304.143410760      -269.997135162         0.747018024
       202          101.000000        56.858476916       282.910106258      -304.702237833      -270.011681952         0.742951184
       203          101.500000        57.422638158       285.717197225      -305.150759189      -269.990989250         0.741860185
       204          102.000000        58.239747463       289.782879122      -305.752271805      -269.965657502         0.740461469
       205          102.500000        59.412384564       295.617556812      -306.847172828      -269.974665614         0.743300756
       206          103.000000        60.703323628       302.040868298      -308.286564791      -270.016754481         0.740693376
       207          103.500000        61.723210022       307.115505953      -309.448119785      -270.051897019         0.742275458
       208          104.000000        61.919552852       308.092446841      -309.823818533      -270.046276451         0.759407073
       209          104.500000        61.582207646       306.413921964      -309.513983811      -270.011304411         1.111706451
       210          105.000000        60.941712053       303.227014995      -309.041059268      -269.988893316         0.739870459
       211          105.500000        60.509006291       301.074005633      -308.738208474      -270.001023261         0.735870715
       212          106.000000        60.219659279       299.634304845      -308.410554316      -270.023117865         0.808212215
       213          106.500000        59.393333344       295.522763864      -307.718749078      -270.017020514         0.721015182
       214          107.000000        58.540984614       291.281741540      -306.733143976      -269.979218110         0.737379356
       215          107.500000        57.968719402       288.434327738      -305.985792501      -269.947724211         0.736306309
       216          108.000000        57.902289063       288.103791025      -305.924691459      -269.956253523         0.737791654
       217          108.500000        58.501333236       291.084448609      -306.426855890      -269.994122671         0.738056713
       218          109.000000        58.987137623       293.501660226      -306.955262482      -270.018961557         0.736631660
       219          109.500000        59.215606129       294.638448488      -307.179994067      -270.006501280         0.755427491
       220          110.000000        59.400506939       295.558457442      -307.313870730      -269.979302305         0.723751595
       221          110.500000        59.988341920       298.483341574      -307.774422064      -269.977603107         0.740019487
       222          111.000000        60.729724609       302.172231374      -308.591506483      -270.009836523         1.024064565
       223          111.500000        61.459813890       305.804928681      -309.283816783      -270.042704290         0.746436280
       224          112.000000        61.427581156       305.644548613      -309.345253794      -270.041949483         0.807959320
       225          112.500000        60.739928726       302.223003884      -308.764108299      -270.012813071         0.740028624
       226          113.000000        59.978095852       298.432360327      -307.953952217      -269.991641908         0.747857728
       227          113.500000        59.234690365       294.733405718      -307.230080623      -270.000916328         0.739085978