Topology of CDB on KCl(001), test CDB ON KCL

672 atoms
98 bonds
178 angles
304 dihedrals
0 impropers
15 atom types
12 bond types
20 angle types
41 dihedral types
0 improper types

0 37.8 xlo xhi
0 50 ylo yhi
0 37.8 zlo zhi

Masses

1 12.011
2 12.011
3 15.9994
4 12.011
5 12.011
6 12.011
7 14.007
8 1.008
9 1.008
10 1.008
11 39.0983
12 35.453
13 12.011
14 12.011
15 12.011

Bond Coeffs

1	222.5	1.528
2	322.	1.111
3	222.5	1.53
4	309.	1.111
5	360.	1.415
6	230.	1.382
7	305.	1.375
8	305.	1.375
9	340.	1.08
10	300.	1.49
11	345.	1.435
12	1053.	1.18

Angle Coeffs

1	58.	115.
2	58.35	113.6
3	45.	111.5
4	65.	108.
5	110.	120.
6	40.	120.
7	110.	120.
8	40.	120.
9	40.	120.
10	40.	120.
11	35.	120.
12	40.	180.
13	34.6	110.1
14	35.5	108.4
15	34.6	110.1
16	26.5	110.1
17	35.5	109.
18	45.9	108.89
19	30.	120.
20	30.	120.

Dihedral Coeffs

1	0.15051	2	0 0.5 
2	0.08133	3	180 0.5 
3	0.10824	4	0 0.5 
4	0.20391	5	0 0.5 
5	0.0645	2	0 0.5 
6	0.14975	3	180 0.5 
7	0.09458	4	0 0.5 
8	0.11251	5	0 0.5 
9	0.16	1	180 0.5 
10	0.39	2	0 0.5 
11	0.24	1	0 0.5 
12	0.29	2	0 0.5 
13	0.02	3	0 0.5 
14	1.62	2	180 0.5 
15	0.19	4	180 0.5 
16	2.4	2	180 0.5 
17	1.62	2	180 0.5 
18	0.19	4	180 0.5 
19	3.1	2	180 0.5 
20	3.1	2	180 0.5 
21	3.1	2	180 0.5 
22	3.1	2	180 0.5 
23	3.1	2	180 0.5 
24	0.89	2	180 0.5 
25	3.1	2	180 0.5 
26	3.1	2	180 0.5 
27	2.	2	180 0.5 
28	0.16	3	0 0.5 
29	0.16	3	0 0.5 
30	0.195	3	0 0.5 
31	0.18	3	0 0.5 
32	0.22	3	0 0.5 
33	0.19	3	0 0.5 
34	0.095	3	0 0.5 
35	2.4	2	180 0.5 
36	4.2	2	180 0.5 
37	4.2	2	180 0.5 
38	4.2	2	180 0.5 
39	4.2	2	180 0.5 
40	2.4	2	180 0.5 
41	2.4	2	180 0.5 


Atoms

1 1 1 -0.180699 7.28667 15.6731 7.42192
2 1 2 -0.134289 7.65569 15.6633 8.9084
3 1 2 -0.134289 9.15351 15.8519 9.16716
4 1 2 -0.134289 9.49165 15.8365 10.6599
5 1 2 -0.134289 10.9867 15.9559 10.97
6 1 2 -0.134289 11.2834 15.8258 12.4667
7 1 2 -0.134289 12.7735 15.8561 12.8145
8 1 2 -0.134289 13.0192 15.6126 14.3074
9 1 2 -0.141152 14.5015 15.539 14.6956
10 1 13 -0.00940501 15.1305 16.9204 14.8045
11 1 3 -0.203378 16.5431 16.8621 15.0859
12 1 14 0.103052 16.9629 16.3929 16.3007
13 1 4 -0.0623285 16.1225 16.2846 17.4108
14 1 5 -0.040921 16.5892 16.0421 18.7208
15 1 5 -0.040921 18.3425 16.0885 16.442
16 1 14 0.103052 17.9972 15.9477 18.8813
17 1 4 -0.0623285 18.8106 15.8735 17.7477
18 1 3 -0.203378 18.5418 15.9365 20.1386
19 1 2 -0.141152 20.2657 16.7003 21.6355
20 1 13 -0.00940501 19.9441 16.279 20.2198
21 1 2 -0.134289 19.9946 15.6001 22.6582
22 1 2 -0.134289 20.6133 15.874 24.0302
23 1 2 -0.134289 22.1435 15.8935 23.9862
24 1 2 -0.134289 22.7951 15.8718 25.3677
25 1 2 -0.134289 24.3209 15.9223 25.2952
26 1 2 -0.134289 25.0024 15.9153 26.6619
27 1 2 -0.134289 26.5276 15.9786 26.5664
28 1 1 -0.180699 27.2021 15.8729 27.9354
29 1 5 -0.0241055 15.6006 15.93 19.8158
30 1 5 -0.0241055 19.296 16.0147 15.3175
31 1 4 -0.029638 18.8915 15.6485 14.0157
32 1 4 -0.029638 15.8997 16.2159 21.1674
33 1 4 -0.029638 14.2802 15.5226 19.5138
34 1 4 -0.029638 14.9313 16.1154 22.1603
35 1 4 -0.029638 19.813 15.5232 12.9821
36 1 4 -0.029638 20.6701 16.2568 15.5346
37 1 15 -0.127516 21.1824 15.7507 13.2241
38 1 4 -0.029638 21.6023 16.1211 14.5161
39 1 4 -0.029638 13.3003 15.4341 20.4934
40 1 15 -0.127516 13.6191 15.7255 21.8336
41 1 6 0.171033 12.6079 15.5908 22.8281
42 1 6 0.171033 22.1527 15.594 12.1944
43 1 7 -0.251313 11.7452 15.4773 23.6089
44 1 7 -0.251313 22.9795 15.4752 11.3722
45 1 8 0.0613962 6.23899 15.3727 7.26861
46 1 8 0.0613962 7.42575 16.677 6.99221
47 1 8 0.0613962 7.92158 14.995 6.82681
48 1 9 0.0692388 7.33185 14.7249 9.39151
49 1 9 0.0692388 7.09393 16.4591 9.42746
50 1 9 0.0692388 9.49093 16.8015 8.71447
51 1 9 0.0692388 9.7199 15.0511 8.65792
52 1 9 0.0692388 8.95302 16.6566 11.168
53 1 9 0.0692388 9.09338 14.9045 11.0982
54 1 9 0.0692388 11.368 16.9232 10.5983
55 1 9 0.0692388 11.5512 15.1898 10.4048
56 1 9 0.0692388 10.8559 14.8833 12.8533
57 1 9 0.0692388 10.7576 16.6318 13.0093
58 1 9 0.0692388 13.2959 15.0748 12.2342
59 1 9 0.0692388 13.2101 16.8203 12.5007
60 1 9 0.0692388 12.5112 14.6763 14.5887
61 1 9 0.0692388 12.5242 16.4015 14.9027
62 1 9 0.0786572 15.0778 14.9746 13.9426
63 1 9 0.0786572 14.6169 15.0075 15.6534
64 1 9 0.0744065 15.0757 17.4538 13.8462
65 1 9 0.0744065 14.6166 17.5362 15.564
66 1 10 0.052957 15.0594 16.4654 17.2779
67 1 10 0.052957 19.8525 15.5987 17.8757
68 1 9 0.0786572 19.7022 17.6132 21.8915
69 1 9 0.0786572 21.3351 16.9661 21.6384
70 1 9 0.0744065 20.1558 17.0908 19.5029
71 1 9 0.0692388 18.9074 15.441 22.7388
72 1 9 0.0692388 20.2419 16.8303 24.4396
73 1 9 0.0692388 20.2942 15.0776 24.7211
74 1 9 0.0692388 22.4845 15.0241 23.3935
75 1 9 0.0692388 22.5025 16.783 23.4403
76 1 9 0.0692388 22.4249 16.7289 25.9587
77 1 9 0.0692388 22.4929 14.9601 25.9115
78 1 9 0.0692388 24.6274 16.8224 24.7324
79 1 9 0.0692388 24.6989 15.0038 27.2043
80 1 9 0.0692388 24.6403 16.7695 27.2618
81 1 9 0.0692388 26.8857 15.1854 25.8842
82 1 9 0.0692388 26.8197 16.9239 26.0777
83 1 8 0.0613962 26.9231 14.9456 28.4628
84 1 8 0.0613962 28.2988 15.9014 27.8542
85 1 8 0.0613962 26.8845 16.7078 28.5805
86 1 9 0.0744065 20.5568 15.4056 19.9283
87 1 10 0.0781729 15.1869 16.3333 23.1973
88 1 10 0.0781729 16.9084 16.5154 21.4339
89 1 10 0.0781729 14.0253 15.2058 18.503
90 1 10 0.0781729 12.3 15.075 20.2498
91 1 10 0.0781729 21.0192 16.5656 16.5184
92 1 10 0.0781729 17.847 15.4204 13.831
93 1 10 0.0781729 19.4934 15.2043 11.9918
94 1 10 0.0781729 22.6589 16.3001 14.7055
95 1 9 0.0692388 20.4163 14.6496 22.2935
96 1 9 0.0692388 24.6957 15.061 24.7118
97	2	11	1	1.611273	3.2306685	4.6829065
98	2	11	1	4.761273	3.2306685	1.5329065
99	2	12	-1	1.611273	3.2306685	1.5329065
100	2	12	-1	4.761273	3.2306685	4.6829065
101	2	11	1	1.611273	3.2306685	10.9829065
102	2	11	1	4.761273	3.2306685	7.8329065
103	2	12	-1	1.611273	3.2306685	7.8329065
104	2	12	-1	4.761273	3.2306685	10.9829065
105	2	11	1	1.611273	3.2306685	17.2829065
106	2	11	1	4.761273	3.2306685	14.1329055
107	2	12	-1	1.611273	3.2306685	14.1329055
108	2	12	-1	4.761273	3.2306685	17.2829065
109	2	11	1	1.611273	3.2306685	23.5829055
110	2	11	1	4.761273	3.2306685	20.4329065
111	2	12	-1	1.611273	3.2306685	20.4329065
112	2	12	-1	4.761273	3.2306685	23.5829055
113	2	11	1	1.611273	3.2306685	29.8829065
114	2	11	1	4.761273	3.2306685	26.7329055
115	2	12	-1	1.611273	3.2306685	26.7329055
116	2	12	-1	4.761273	3.2306685	29.8829065
117	2	11	1	1.611273	3.2306685	36.1829075
118	2	11	1	4.761273	3.2306685	33.0329065
119	2	12	-1	1.611273	3.2306685	33.0329065
120	2	12	-1	4.761273	3.2306685	36.1829075
121	2	11	1	7.911273	3.2306685	4.6829065
122	2	11	1	11.061273	3.2306685	1.5329065
123	2	12	-1	7.911273	3.2306685	1.5329065
124	2	12	-1	11.061273	3.2306685	4.6829065
125	2	11	1	7.911273	3.2306685	10.9829065
126	2	11	1	11.061273	3.2306685	7.8329065
127	2	12	-1	7.911273	3.2306685	7.8329065
128	2	12	-1	11.061273	3.2306685	10.9829065
129	2	11	1	7.911273	3.2306685	17.2829065
130	2	11	1	11.061273	3.2306685	14.1329055
131	2	12	-1	7.911273	3.2306685	14.1329055
132	2	12	-1	11.061273	3.2306685	17.2829065
133	2	11	1	7.911273	3.2306685	23.5829055
134	2	11	1	11.061273	3.2306685	20.4329065
135	2	12	-1	7.911273	3.2306685	20.4329065
136	2	12	-1	11.061273	3.2306685	23.5829055
137	2	11	1	7.911273	3.2306685	29.8829065
138	2	11	1	11.061273	3.2306685	26.7329055
139	2	12	-1	7.911273	3.2306685	26.7329055
140	2	12	-1	11.061273	3.2306685	29.8829065
141	2	11	1	7.911273	3.2306685	36.1829075
142	2	11	1	11.061273	3.2306685	33.0329065
143	2	12	-1	7.911273	3.2306685	33.0329065
144	2	12	-1	11.061273	3.2306685	36.1829075
145	2	11	1	14.211273	3.2306685	4.6829065
146	2	11	1	17.361273	3.2306685	1.5329065
147	2	12	-1	14.211273	3.2306685	1.5329065
148	2	12	-1	17.361273	3.2306685	4.6829065
149	2	11	1	14.211273	3.2306685	10.9829065
150	2	11	1	17.361273	3.2306685	7.8329065
151	2	12	-1	14.211273	3.2306685	7.8329065
152	2	12	-1	17.361273	3.2306685	10.9829065
153	2	11	1	14.211273	3.2306685	17.2829065
154	2	11	1	17.361273	3.2306685	14.1329055
155	2	12	-1	14.211273	3.2306685	14.1329055
156	2	12	-1	17.361273	3.2306685	17.2829065
157	2	11	1	14.211273	3.2306685	23.5829055
158	2	11	1	17.361273	3.2306685	20.4329065
159	2	12	-1	14.211273	3.2306685	20.4329065
160	2	12	-1	17.361273	3.2306685	23.5829055
161	2	11	1	14.211273	3.2306685	29.8829065
162	2	11	1	17.361273	3.2306685	26.7329055
163	2	12	-1	14.211273	3.2306685	26.7329055
164	2	12	-1	17.361273	3.2306685	29.8829065
165	2	11	1	14.211273	3.2306685	36.1829075
166	2	11	1	17.361273	3.2306685	33.0329065
167	2	12	-1	14.211273	3.2306685	33.0329065
168	2	12	-1	17.361273	3.2306685	36.1829075
169	2	11	1	20.511273	3.2306685	4.6829065
170	2	11	1	23.661273	3.2306685	1.5329065
171	2	12	-1	20.511273	3.2306685	1.5329065
172	2	12	-1	23.661273	3.2306685	4.6829065
173	2	11	1	20.511273	3.2306685	10.9829065
174	2	11	1	23.661273	3.2306685	7.8329065
175	2	12	-1	20.511273	3.2306685	7.8329065
176	2	12	-1	23.661273	3.2306685	10.9829065
177	2	11	1	20.511273	3.2306685	17.2829065
178	2	11	1	23.661273	3.2306685	14.1329055
179	2	12	-1	20.511273	3.2306685	14.1329055
180	2	12	-1	23.661273	3.2306685	17.2829065
181	2	11	1	20.511273	3.2306685	23.5829055
182	2	11	1	23.661273	3.2306685	20.4329065
183	2	12	-1	20.511273	3.2306685	20.4329065
184	2	12	-1	23.661273	3.2306685	23.5829055
185	2	11	1	20.511273	3.2306685	29.8829065
186	2	11	1	23.661273	3.2306685	26.7329055
187	2	12	-1	20.511273	3.2306685	26.7329055
188	2	12	-1	23.661273	3.2306685	29.8829065
189	2	11	1	20.511273	3.2306685	36.1829075
190	2	11	1	23.661273	3.2306685	33.0329065
191	2	12	-1	20.511273	3.2306685	33.0329065
192	2	12	-1	23.661273	3.2306685	36.1829075
193	2	11	1	26.811272	3.2306685	4.6829065
194	2	11	1	29.961274	3.2306685	1.5329065
195	2	12	-1	26.811272	3.2306685	1.5329065
196	2	12	-1	29.961274	3.2306685	4.6829065
197	2	11	1	26.811272	3.2306685	10.9829065
198	2	11	1	29.961274	3.2306685	7.8329065
199	2	12	-1	26.811272	3.2306685	7.8329065
200	2	12	-1	29.961274	3.2306685	10.9829065
201	2	11	1	26.811272	3.2306685	17.2829065
202	2	11	1	29.961274	3.2306685	14.1329055
203	2	12	-1	26.811272	3.2306685	14.1329055
204	2	12	-1	29.961274	3.2306685	17.2829065
205	2	11	1	26.811272	3.2306685	23.5829055
206	2	11	1	29.961274	3.2306685	20.4329065
207	2	12	-1	26.811272	3.2306685	20.4329065
208	2	12	-1	29.961274	3.2306685	23.5829055
209	2	11	1	26.811272	3.2306685	29.8829065
210	2	11	1	29.961274	3.2306685	26.7329055
211	2	12	-1	26.811272	3.2306685	26.7329055
212	2	12	-1	29.961274	3.2306685	29.8829065
213	2	11	1	26.811272	3.2306685	36.1829075
214	2	11	1	29.961274	3.2306685	33.0329065
215	2	12	-1	26.811272	3.2306685	33.0329065
216	2	12	-1	29.961274	3.2306685	36.1829075
217	2	11	1	33.111271	3.2306685	4.6829065
218	2	11	1	36.261273	3.2306685	1.5329065
219	2	12	-1	33.111271	3.2306685	1.5329065
220	2	12	-1	36.261273	3.2306685	4.6829065
221	2	11	1	33.111271	3.2306685	10.9829065
222	2	11	1	36.261273	3.2306685	7.8329065
223	2	12	-1	33.111271	3.2306685	7.8329065
224	2	12	-1	36.261273	3.2306685	10.9829065
225	2	11	1	33.111271	3.2306685	17.2829065
226	2	11	1	36.261273	3.2306685	14.1329055
227	2	12	-1	33.111271	3.2306685	14.1329055
228	2	12	-1	36.261273	3.2306685	17.2829065
229	2	11	1	33.111271	3.2306685	23.5829055
230	2	11	1	36.261273	3.2306685	20.4329065
231	2	12	-1	33.111271	3.2306685	20.4329065
232	2	12	-1	36.261273	3.2306685	23.5829055
233	2	11	1	33.111271	3.2306685	29.8829065
234	2	11	1	36.261273	3.2306685	26.7329055
235	2	12	-1	33.111271	3.2306685	26.7329055
236	2	12	-1	36.261273	3.2306685	29.8829065
237	2	11	1	33.111271	3.2306685	36.1829075
238	2	11	1	36.261273	3.2306685	33.0329065
239	2	12	-1	33.111271	3.2306685	33.0329065
240	2	12	-1	36.261273	3.2306685	36.1829075
241	2	11	1	1.60301	6.3301475	1.5431195
242	2	11	1	4.745749	6.3399085	4.6910165
243	2	12	-1	4.759948	6.3227135	1.5490295
244	2	12	-1	1.603822	6.3225165	4.7010525
245	2	11	1	1.597559	6.3314095	7.8408085
246	2	11	1	4.735479	6.3257175	10.9930795
247	2	12	-1	4.756369	6.3240865	7.8511435
248	2	12	-1	1.594401	6.3222925	10.9978265
249	2	11	1	1.588544	6.3269575	14.1432135
250	2	11	1	4.737669	6.3309135	17.2966665
251	2	12	-1	4.744226	6.3166425	14.1475625
252	2	12	-1	1.593822	6.3250605	17.2946825
253	2	11	1	1.595971	6.3294145	20.4462405
254	2	11	1	4.746702	6.3331635	23.5992385
255	2	12	-1	4.753126	6.3222825	20.4434895
256	2	12	-1	1.598414	6.3238495	23.5929845
257	2	11	1	1.59934	6.3290715	26.7477745
258	2	11	1	4.746564	6.3328325	29.8998535
259	2	12	-1	4.753402	6.3188515	26.7445245
260	2	12	-1	1.601479	6.3231555	29.8912345
261	2	11	1	1.603473	6.3320265	33.0504005
262	2	11	1	4.748487	6.3327555	36.1969955
263	2	12	-1	4.759049	6.3180085	33.0412415
264	2	12	-1	1.605337	6.3230155	36.1941725
265	2	11	1	7.900178	6.3299405	1.5466765
266	2	11	1	11.049208	6.3359655	4.6960065
267	2	12	-1	11.056604	6.3261535	1.5546375
268	2	12	-1	7.906192	6.3220905	4.7037655
269	2	11	1	7.896255	6.3239795	7.8402535
270	2	11	1	11.043207	6.3255915	10.9921285
271	2	12	-1	11.053559	6.3319645	7.8548225
272	2	12	-1	7.901147	6.3071515	11.0012535
273	2	11	1	7.882616	6.3062085	14.1518425
274	2	11	1	11.050732	6.3211525	17.3064485
275	2	12	-1	11.045714	6.2998015	14.1481295
276	2	12	-1	7.900486	6.3182115	17.3002995
277	2	11	1	7.895347	6.3278925	20.4527085
278	2	11	1	11.045546	6.3390085	23.6030355
279	2	12	-1	11.049526	6.3247465	20.4513555
280	2	12	-1	7.904668	6.3283255	23.5962995
281	2	11	1	7.897504	6.3290035	26.7524895
282	2	11	1	11.0497	6.3265995	29.9022035
283	2	12	-1	11.055243	6.3235095	26.7455395
284	2	12	-1	7.904654	6.3223625	29.8971835
285	2	11	1	7.900311	6.3322025	33.0542455
286	2	11	1	11.051555	6.3289425	36.2021225
287	2	12	-1	11.056453	6.3191525	33.0471965
288	2	12	-1	7.90819	6.3232195	36.1995175
289	2	11	1	14.201832	6.3286655	1.5511445
290	2	11	1	17.352646	6.3339925	4.6973775
291	2	12	-1	17.352425	6.3246745	1.5543355
292	2	12	-1	14.202837	6.3235985	4.7089075
293	2	11	1	14.199213	6.3319835	7.8464745
294	2	11	1	17.345744	6.3307615	11.0047045
295	2	12	-1	17.344809	6.3271295	7.8576335
296	2	12	-1	14.190883	6.3228105	11.0011725
297	2	11	1	14.199348	6.3137725	14.1472945
298	2	11	1	17.348614	6.3663365	17.2986845
299	2	12	-1	17.348593	6.3416335	14.1609525
300	2	12	-1	14.208443	6.3321815	17.2965555
301	2	11	1	14.196008	6.3204385	20.4509685
302	2	11	1	17.341549	6.3192695	23.5934075
303	2	12	-1	17.351294	6.3331915	20.4383215
304	2	12	-1	14.19872	6.3189965	23.5984675
305	2	11	1	14.199859	6.3270215	26.7533715
306	2	11	1	17.350602	6.3312885	29.9016635
307	2	12	-1	17.353375	6.3247425	26.7426275
308	2	12	-1	14.206371	6.3242935	29.8985165
309	2	11	1	14.201329	6.3316295	33.0562635
310	2	11	1	17.352757	6.3277325	36.2029235
311	2	12	-1	17.355538	6.3225165	33.0449265
312	2	12	-1	14.205445	6.3246325	36.2017905
313	2	11	1	20.503436	6.3288595	1.5553595
314	2	11	1	23.65308	6.3305635	4.6971095
315	2	12	-1	23.650553	6.3221475	1.5492455
316	2	12	-1	20.498534	6.3228185	4.7111195
317	2	11	1	20.498425	6.3301305	7.8547765
318	2	11	1	23.644175	6.3427335	11.0021855
319	2	12	-1	23.646576	6.3236215	7.8599925
320	2	12	-1	20.494088	6.3366885	11.0134745
321	2	11	1	20.496781	6.3555225	14.1537675
322	2	11	1	23.636269	6.3492975	17.2977785
323	2	12	-1	23.637852	6.3486025	14.1544225
324	2	12	-1	20.486556	6.3563235	17.2995935
325	2	11	1	20.498902	6.3230135	20.4420135
326	2	11	1	23.660466	6.3203035	23.5973095
327	2	12	-1	23.645562	6.3362195	20.4492675
328	2	12	-1	20.503363	6.2866065	23.5975295
329	2	11	1	20.498984	6.3079775	26.7620765
330	2	11	1	23.652657	6.3193865	29.9085335
331	2	12	-1	23.653397	6.3144035	26.7453045
332	2	12	-1	20.50125	6.3180075	29.9032465
333	2	11	1	20.503798	6.3303535	33.0614635
334	2	11	1	23.655673	6.3261775	36.2036025
335	2	12	-1	23.652463	6.3181005	33.0483105
336	2	12	-1	20.502606	6.3240285	36.2039005
337	2	11	1	26.805644	6.3289535	1.5514175
338	2	11	1	29.954451	6.3334765	4.6917585
339	2	12	-1	29.949847	6.3231815	1.5466135
340	2	12	-1	26.799283	6.3192355	4.7038775
341	2	11	1	26.803175	6.3276865	7.8458635
342	2	11	1	29.945065	6.3297825	10.9942395
343	2	12	-1	29.948008	6.3228765	7.8507145
344	2	12	-1	26.787484	6.3260865	11.0056795
345	2	11	1	26.790846	6.3366855	14.1511215
346	2	11	1	29.943388	6.3296115	17.2962805
347	2	12	-1	29.936726	6.3262905	14.1514535
348	2	12	-1	26.785025	6.3342755	17.3064525
349	2	11	1	26.795748	6.3404505	20.4528685
350	2	11	1	29.951977	6.3357095	23.5984335
351	2	12	-1	29.938088	6.3308925	20.4473675
352	2	12	-1	26.799473	6.3386535	23.6002515
353	2	11	1	26.807854	6.3405715	26.7510995
354	2	11	1	29.95723	6.3319895	29.8991155
355	2	12	-1	29.945765	6.3352585	26.7427055
356	2	12	-1	26.800301	6.3246385	29.8925865
357	2	11	1	26.807307	6.3308705	33.0569735
358	2	11	1	29.957119	6.3291895	36.1977205
359	2	12	-1	29.950034	6.3222165	33.0388155
360	2	12	-1	26.801034	6.3233505	36.2002115
361	2	11	1	33.109025	6.3321305	1.5441195
362	2	11	1	36.251664	6.3325255	4.6870445
363	2	12	-1	36.253491	6.3235975	1.5440755
364	2	12	-1	33.096127	6.3176105	4.6997675
365	2	11	1	33.104119	6.3317385	7.8407405
366	2	11	1	36.243947	6.3274245	10.9898975
367	2	12	-1	36.249524	6.3237645	7.8469545
368	2	12	-1	33.089909	6.3210575	10.9980055
369	2	11	1	33.095921	6.3308665	14.1423585
370	2	11	1	36.2426	6.3283715	17.2928225
371	2	12	-1	36.241181	6.3234415	14.1453615
372	2	12	-1	33.085442	6.3220435	17.2957715
373	2	11	1	33.099526	6.3320065	20.4438165
374	2	11	1	36.248765	6.3285875	23.5953455
375	2	12	-1	36.243809	6.3247645	20.4428665
376	2	12	-1	33.090638	6.3240765	23.5919715
377	2	11	1	33.10537	6.3360855	26.7468045
378	2	11	1	36.25335	6.3294635	29.8968975
379	2	12	-1	36.247899	6.3254695	26.7398135
380	2	12	-1	33.09599	6.3225385	29.8893305
381	2	11	1	33.110364	6.3356375	33.0500115
382	2	11	1	36.2557	6.3298115	36.1948255
383	2	12	-1	36.252984	6.3208565	33.0380865
384	2	12	-1	33.098355	6.3204485	36.1931385
385	2	12	-1	1.612364	9.3976905	1.5708665
386	2	12	-1	4.751205	9.4336165	4.7188305
387	2	12	-1	1.60394	9.4150475	7.8609755
388	2	12	-1	4.726877	9.4156325	11.0128165
389	2	12	-1	1.586441	9.4107925	14.1575235
390	2	12	-1	4.732376	9.4259865	17.3078865
391	2	12	-1	1.595888	9.4119765	20.4545225
392	2	12	-1	4.742597	9.4221205	23.6051665
393	2	12	-1	1.601624	9.4111195	26.7530905
394	2	12	-1	4.7476	9.4239475	29.9067255
395	2	12	-1	1.609475	9.4096685	33.0515335
396	2	12	-1	4.753211	9.4104275	36.1980795
397	2	12	-1	7.902231	9.4129935	1.5799335
398	2	12	-1	11.04809	9.4345415	4.7283625
399	2	12	-1	7.892577	9.4220535	7.8677075
400	2	12	-1	11.027978	9.4429975	11.0195785
401	2	12	-1	7.866766	9.3855295	14.1762575
402	2	12	-1	11.042798	9.4111855	17.3215375
403	2	12	-1	7.892759	9.4263515	20.4567555
404	2	12	-1	11.04552	9.4496325	23.6128055
405	2	12	-1	7.891663	9.4191725	26.7637075
406	2	12	-1	11.048644	9.4156375	29.9199855
407	2	12	-1	7.901692	9.4238675	33.0620355
408	2	12	-1	11.050925	9.4108445	36.2068835
409	2	12	-1	14.197238	9.4119975	1.5849255
410	2	12	-1	17.341202	9.4295665	4.7282795
411	2	12	-1	14.188961	9.4390685	7.8783345
412	2	12	-1	17.312209	9.4237955	11.0327465
413	2	12	-1	14.168261	9.3971225	14.1665425
414	2	12	-1	17.326216	9.5406755	17.3163745
415	2	12	-1	14.184387	9.4005365	20.4563185
416	2	12	-1	17.339177	9.4056205	23.6025995
417	2	12	-1	14.202652	9.4218495	26.7660515
418	2	12	-1	17.347102	9.4332085	29.9082215
419	2	12	-1	14.2	9.4243925	33.0628825
420	2	12	-1	17.347064	9.4090875	36.2054145
421	2	12	-1	20.493369	9.4108355	1.5877985
422	2	12	-1	23.639313	9.4158505	4.7209095
423	2	12	-1	20.475945	9.4260925	7.8851075
424	2	12	-1	23.618039	9.4595335	11.0274625
425	2	12	-1	20.465235	9.4921745	14.1890825
426	2	12	-1	23.611588	9.4616875	17.3307945
427	2	12	-1	20.488007	9.4157005	20.4666015
428	2	12	-1	23.650307	9.4180375	23.6161625
429	2	12	-1	20.486449	9.3870525	26.7855725
430	2	12	-1	23.638182	9.4078645	29.9249465
431	2	12	-1	20.496331	9.4247645	33.0673765
432	2	12	-1	23.645106	9.4091665	36.2044195
433	2	12	-1	26.793089	9.4101945	1.5795155
434	2	12	-1	29.940554	9.4241205	4.7141875
435	2	12	-1	26.788638	9.4182655	7.8673835
436	2	12	-1	29.924603	9.4213915	11.0163275
437	2	12	-1	26.764645	9.4389605	14.1790795
438	2	12	-1	29.916527	9.4287495	17.3167485
439	2	12	-1	26.766724	9.4571865	20.4754455
440	2	12	-1	29.925847	9.4433685	23.6102305
441	2	12	-1	26.788918	9.4641725	26.7678115
442	2	12	-1	29.93735	9.4333175	29.9048545
443	2	12	-1	26.793734	9.4229715	33.0625355
444	2	12	-1	29.942809	9.4106395	36.1937875
445	2	12	-1	33.092232	9.4094985	1.5681345
446	2	12	-1	36.231713	9.4104435	4.7089385
447	2	12	-1	33.084973	9.4235655	7.8609905
448	2	12	-1	36.216012	9.4092485	11.0069555
449	2	12	-1	33.068291	9.4245635	14.1597985
450	2	12	-1	36.211388	9.4103355	17.3051995
451	2	12	-1	33.069359	9.4266905	20.4559065
452	2	12	-1	36.219079	9.4111425	23.6014275
453	2	12	-1	33.077855	9.4330885	26.7513745
454	2	12	-1	36.227036	9.4107235	29.8980475
455	2	12	-1	33.090016	9.4244555	33.0487375
456	2	12	-1	36.23436	9.3971685	36.1904875
457	2	11	1	1.580275	9.4421565	4.7003155
458	2	11	1	4.74204	9.4433445	1.5469265
459	2	11	1	1.559619	9.4337005	11.0020365
460	2	11	1	4.734791	9.4311605	7.8559995
461	2	11	1	1.561124	9.4372465	17.3067925
462	2	11	1	4.71091	9.4143435	14.1567425
463	2	11	1	1.573826	9.4354565	23.6086545
464	2	11	1	4.730497	9.4238325	20.4631485
465	2	11	1	1.579708	9.4374445	29.9104355
466	2	11	1	4.738103	9.4221085	26.7615195
467	2	11	1	1.583435	9.4553825	36.2212575
468	2	11	1	4.742343	9.4241615	33.0641945
469	2	11	1	7.88964	9.4262995	4.7096155
470	2	11	1	11.043486	9.4394295	1.5542175
471	2	11	1	7.871291	9.3741945	11.0118085
472	2	11	1	11.030807	9.4359205	7.8672355
473	2	11	1	7.871215	9.4075425	17.3202405
474	2	11	1	11.007783	9.3526675	14.1612045
475	2	11	1	7.892923	9.4331845	23.6194195
476	2	11	1	11.032938	9.4238145	20.4842515
477	2	11	1	7.891392	9.4232955	29.9161095
478	2	11	1	11.03879	9.4209875	26.7660915
479	2	11	1	7.892818	9.4379575	36.2288825
480	2	11	1	11.043745	9.4192495	33.0733075
481	2	11	1	14.192128	9.4244105	4.7144695
482	2	11	1	17.345709	9.4378465	1.5561975
483	2	11	1	14.160882	9.4150115	11.0133405
484	2	11	1	17.338885	9.4254005	7.8670815
485	2	11	1	14.199536	9.4419165	17.3159495
486	2	11	1	17.327044	9.4558625	14.1877595
487	2	11	1	14.181588	9.4151485	23.6222405
488	2	11	1	17.333399	9.4352415	20.4487775
489	2	11	1	14.190135	9.4229255	29.9179405
490	2	11	1	17.338355	9.4265635	26.7598795
491	2	11	1	14.195238	9.4379835	36.2328915
492	2	11	1	17.34504	9.4217205	33.0720565
493	2	11	1	20.496701	9.4274705	4.7232225
494	2	11	1	23.647378	9.4338805	1.5530205
495	2	11	1	20.483651	9.4489205	11.0331425
496	2	11	1	23.63922	9.4227295	7.8742005
497	2	11	1	20.455719	9.4968875	17.3200745
498	2	11	1	23.615651	9.4768385	14.1588295
499	2	11	1	20.493414	9.3190975	23.6323885
500	2	11	1	23.627768	9.4450435	20.4794185
501	2	11	1	20.492528	9.4102315	29.9324315
502	2	11	1	23.644953	9.3870375	26.7759175
503	2	11	1	20.49701	9.4355275	36.2393385
504	2	11	1	23.648699	9.4160925	33.0806055
505	2	11	1	26.794064	9.4241435	4.7134295
506	2	11	1	29.950285	9.4380185	1.5455585
507	2	11	1	26.767931	9.4266605	11.0125715
508	2	11	1	29.939877	9.4247015	7.8579965
509	2	11	1	26.773396	9.4337675	17.3180095
510	2	11	1	29.923115	9.4264795	14.1573375
511	2	11	1	26.790204	9.4500135	23.6335785
512	2	11	1	29.928654	9.4295015	20.4638125
513	2	11	1	26.793723	9.4182375	29.9192135
514	2	11	1	29.937132	9.4448535	26.7655705
515	2	11	1	26.800486	9.4355065	36.2346775
516	2	11	1	29.951081	9.4249345	33.0645115
517	2	11	1	33.09795	9.4242805	4.7001105
518	2	11	1	36.262642	9.4566845	1.5390525
519	2	11	1	33.083409	9.4209125	11.0032885
520	2	11	1	36.25235	9.4391265	7.8481955
521	2	11	1	33.078896	9.4218935	17.3056495
522	2	11	1	36.237965	9.4350455	14.1524235
523	2	11	1	33.088654	9.4254535	23.6071655
524	2	11	1	36.245259	9.4370265	20.4548155
525	2	11	1	33.097172	9.4255185	29.9096095
526	2	11	1	36.253891	9.4393705	26.7560285
527	2	11	1	33.103196	9.4379705	36.2204065
528	2	11	1	36.261189	9.4397625	33.0594795
529	2	12	-1	4.742406	12.6019715	1.5693705
530	2	12	-1	1.587259	12.6010185	4.7143435
531	2	12	-1	4.725808	12.6198575	7.8757565
532	2	12	-1	1.554376	12.5951655	11.0158175
533	2	12	-1	4.694371	12.5950925	14.1733755
534	2	12	-1	1.55212	12.5969315	17.3177255
535	2	12	-1	4.717857	12.5971205	20.4695065
536	2	12	-1	1.567781	12.5923545	23.6160645
537	2	12	-1	4.730293	12.5913165	26.7729115
538	2	12	-1	1.580194	12.5950705	29.9173705
539	2	12	-1	4.738956	12.5951565	33.0744985
540	2	12	-1	1.58797	12.5992645	36.2210545
541	2	12	-1	11.04262	12.5999955	1.5802095
542	2	12	-1	7.89466	12.6028945	4.7354085
543	2	12	-1	11.028214	12.6235265	7.8936715
544	2	12	-1	7.825789	12.4930765	11.0579825
545	2	12	-1	10.956678	12.4778745	14.2049825
546	2	12	-1	7.85395	12.5919875	17.3351065
547	2	12	-1	11.037667	12.6129985	20.4654565
548	2	12	-1	7.860014	12.5855095	23.6250615
549	2	12	-1	11.033853	12.5559045	26.8237485
550	2	12	-1	7.882772	12.5932295	29.9325035
551	2	12	-1	11.040887	12.5919725	33.0904205
552	2	12	-1	7.891331	12.5967435	36.2341585
553	2	12	-1	17.339268	12.5967725	1.5790625
554	2	12	-1	14.186603	12.6009975	4.7367125
555	2	12	-1	17.321856	12.6108785	7.8961005
556	2	12	-1	14.130852	12.6258075	11.0445165
557	2	12	-1	17.231911	12.6504295	14.1831975
558	2	12	-1	14.123946	12.6900375	17.3162015
559	2	12	-1	17.328507	12.6051185	20.4835535
560	2	12	-1	14.230452	12.5679195	23.6314265
561	2	12	-1	17.339293	12.6245525	26.7688225
562	2	12	-1	14.191519	12.5969245	29.9313745
563	2	12	-1	17.34027	12.5957895	33.0826385
564	2	12	-1	14.191926	12.5970335	36.2367185
565	2	12	-1	23.639559	12.5907035	1.5761635
566	2	12	-1	20.480654	12.5997655	4.7405035
567	2	12	-1	23.622309	12.5641745	7.8543655
568	2	12	-1	20.400561	12.6188925	11.0567505
569	2	12	-1	23.585188	12.6700255	14.2248945
570	2	12	-1	20.480437	12.7572015	17.4012285
571	2	12	-1	23.578156	12.6767625	20.5221545
572	2	12	-1	20.501805	12.3867675	23.7004445
573	2	12	-1	23.611025	12.5120375	26.8226305
574	2	12	-1	20.484047	12.5952075	29.9484525
575	2	12	-1	23.638297	12.5931765	33.0949945
576	2	12	-1	20.489493	12.5937055	36.2429975
577	2	12	-1	29.944714	12.5951215	1.5659255
578	2	12	-1	26.78895	12.5949485	4.7270845
579	2	12	-1	29.930024	12.5962865	7.8684615
580	2	12	-1	26.784474	12.5740595	11.0328255
581	2	12	-1	29.905402	12.6007955	14.1782505
582	2	12	-1	26.755883	12.6200715	17.3436305
583	2	12	-1	29.905163	12.6091205	20.4799525
584	2	12	-1	26.76141	12.6613335	23.6577515
585	2	12	-1	29.920373	12.6387165	26.7797455
586	2	12	-1	26.769934	12.5840245	29.9614115
587	2	12	-1	29.940196	12.6008325	33.0741245
588	2	12	-1	26.792517	12.5949125	36.2415325
589	2	12	-1	36.24788	12.5995175	1.5570025
590	2	12	-1	33.09182	12.5955455	4.7136505
591	2	12	-1	36.235028	12.5981615	7.8613775
592	2	12	-1	33.067578	12.5927995	11.0162745
593	2	12	-1	36.211792	12.5943615	14.1634435
594	2	12	-1	33.059804	12.5961165	17.3182435
595	2	12	-1	36.217965	12.5948785	20.4645565
596	2	12	-1	33.069851	12.6007135	23.6180045
597	2	12	-1	36.232514	12.5988415	26.7632775
598	2	12	-1	33.081776	12.6002895	29.9169735
599	2	12	-1	36.245053	12.5967355	33.0626005
600	2	12	-1	33.09446	12.5949885	36.2187625
601	2	11	1	1.598608	12.5138925	1.5709905
602	2	11	1	4.74944	12.5275765	4.7283475
603	2	11	1	1.582453	12.5156415	7.8668865
604	2	11	1	4.696834	12.4986245	11.0234645
605	2	11	1	1.555755	12.5103435	14.1694755
606	2	11	1	4.706624	12.5108755	17.3284325
607	2	11	1	1.573965	12.5114255	20.4689935
608	2	11	1	4.730564	12.5107895	23.6232785
609	2	11	1	1.589104	12.5124065	26.7639265
610	2	11	1	4.742453	12.5131085	29.9154215
611	2	11	1	1.597571	12.5108865	33.0616955
612	2	11	1	4.746372	12.5109915	36.2158635
613	2	11	1	7.896554	12.5143935	1.5850255
614	2	11	1	11.040685	12.5218045	4.7381375
615	2	11	1	7.877746	12.5212955	7.8980955
616	2	11	1	10.968987	12.5882195	11.0493905
617	2	11	1	7.823777	12.4518155	14.1954705
618	2	11	1	10.985722	12.4599615	17.3423715
619	2	11	1	7.878593	12.5139895	20.4970155
620	2	11	1	11.035479	12.6349085	23.6710725
621	2	11	1	7.897537	12.5181615	26.7692465
622	2	11	1	11.037941	12.5042095	29.9374645
623	2	11	1	7.894289	12.5111495	33.0725865
624	2	11	1	11.044316	12.5101545	36.2273755
625	2	11	1	14.193354	12.5109395	1.5886085
626	2	11	1	17.339787	12.5164485	4.7417495
627	2	11	1	14.175821	12.5233715	7.8876275
628	2	11	1	17.280303	12.4722815	11.0383065
629	2	11	1	14.105159	12.4376745	14.1833365
630	2	11	1	17.304297	12.9198575	17.3478515
631	2	11	1	14.214419	12.4587875	20.5057625
632	2	11	1	17.352503	12.4865155	23.6187355
633	2	11	1	14.1684	12.5178275	26.7696995
634	2	11	1	17.331322	12.5170825	29.9246495
635	2	11	1	14.190842	12.5098325	33.0750585
636	2	11	1	17.340279	12.5066945	36.2268115
637	2	11	1	20.489888	12.5111415	1.5964065
638	2	11	1	23.634655	12.5040145	4.7335775
639	2	11	1	20.489655	12.5195495	7.9060815
640	2	11	1	23.613759	12.6428665	11.0237015
641	2	11	1	20.430123	12.6580505	14.2327605
642	2	11	1	23.61376	12.5303435	17.3551795
643	2	11	1	20.431881	12.4733265	20.5365575
644	2	11	1	23.627726	12.5126855	23.6851305
645	2	11	1	20.474646	12.4574635	26.8167375
646	2	11	1	23.627089	12.4817025	29.9567515
647	2	11	1	20.486619	12.5096385	33.0906575
648	2	11	1	23.63954	12.5094235	36.2345175
649	2	11	1	26.789788	12.5119445	1.5915285
650	2	11	1	29.932505	12.5126115	4.7271915
651	2	11	1	26.763325	12.5161925	7.8910655
652	2	11	1	29.909281	12.5088555	11.0228055
653	2	11	1	26.738884	12.5315165	14.1714755
654	2	11	1	29.904454	12.5122655	17.3242155
655	2	11	1	26.749125	12.5428535	20.4977845
656	2	11	1	29.913476	12.5319245	23.6314625
657	2	11	1	26.76355	12.6190625	26.8134035
658	2	11	1	29.922675	12.5240395	29.9213175
659	2	11	1	26.787781	12.5069415	33.0954785