#---------------------------------------------------------------------
# Usage (1st task: MM isobaric/isothermal ensemble)
1. cd RUN01_EQUIL_MM
2. bash run.sh
3. cd ./../

Note: 8 core
  **** **** ******  **  PROGRAM STARTED AT               2024-08-15 14:16:51.827
  **** **** ******  **  PROGRAM ENDED AT                 2024-08-15 14:29:41.867
#---------------------------------------------------------------------
# Usage (2nd task: MM isothermal ensemble)
1. cd RUN01_EQUIL_MM_AVG
2. bash run.sh
3. cd ./../

Note: 8 core
  **** **** ******  **  PROGRAM STARTED AT               2024-08-15 14:42:38.327
  **** **** ******  **  PROGRAM ENDED AT                 2024-08-15 14:43:52.752
#---------------------------------------------------------------------
# Usage (3rd task: QM/MM isothermal ensemble)
1. cd RUN01_EQUIL_QMMM
2. bash run.sh
3. cd ./../

Note: 8 core
  **** **** ******  **  PROGRAM STARTED AT               2024-08-15 14:44:32.384
  **** **** ******  **  PROGRAM ENDED AT                 2024-08-15 14:52:48.852
#---------------------------------------------------------------------
# Usage (4th task: QM/MM Metadyanamics simulations: the reaction Zwitterionic-Neutral reaction in solution)
1. RUN02_QMMM_MTD1
2. bash run.sh
3. cd ./../
#---------------------------------------------------------------------
# Usage (4th task: QM/MM Metadyanamics simulations: the elimination reaction, producing cyanic acid and ammonia)
1. RUN02_QMMM_MTD2
2. bash run.sh
3. cd ./../
#---------------------------------------------------------------------
QM/MM study of UREA Zwitterion in water
https://www.cp2k.org/exercises:2015_cecam_tutorial:urea
#---------------------------------------------------------------------
# Note

wget http://cp2k.org/static/exercises/2015_cecam_tutorial/UREA.tar.xz

tar xvf UREA.tar.xz

#---------------------------------------------------------------------
Homeworks-1_RUN01_EQUIL_QMMM_GPW_wB97X-D3
 Since there was no example code on Github, 
 I am not confident about the reliability of "Homeworks-1_RUN01_EQUIL_QMMM_GPW_wB97X-D3".

#---------------------------------------------------------------------
# Ambertools (https://ambermd.org/) (GPL and LGPL licenses)
Prepare_Molecules: leapcomm
Prepare_Solvated_Box
Note: LEaP = PREP-LINK-EDIT-PARM of Amber module
Note: LEaP: tLEaP or xLEaP
#---------------------------------------------------------------------
# Usage
- https://docs.bioexcel.eu/2020_06_09_online_ambertools4cp2k/aio.html
- http://www.ncube.human.nagoya-u.ac.jp/jp/books/msbm/ambertools.html (Japanese)
- https://helpdesk.t3.gsic.titech.ac.jp/manuals/amber/molecular/ (Japanese)
- https://qiita.com/Ag_smith/items/430e9efb32a855d4c511 (Japanese)
- https://qiita.com/Ag_smith/items/d2e86dda17f190a3dd0f (Japanese)
- https://www.youtube.com/watch?v=JcfszGWrVt8
- https://www.youtube.com/watch?v=SMZKdZsPxPw
#---------------------------------------------------------------------