 Entering Gaussian System, Link 0=g03
 Input=mol.inp
 Output=mol.log
 Initial command:
 /ext/software/64/g03/l1.exe /home/teo/QMMM-Tutorial/Urea/Prepare_Molecules/Gau-8030.inp -scrdir=/home/teo/QMMM-Tutorial/Urea/Prepare_Molecules/
 Entering Link 1 = /ext/software/64/g03/l1.exe PID=      8031.
  
 Copyright (c) 1988,1990,1992,1993,1995,1998,2003,2004, Gaussian, Inc.
                  All Rights Reserved.
  
 This is the Gaussian(R) 03 program.  It is based on the
 the Gaussian(R) 98 system (copyright 1998, Gaussian, Inc.),
 the Gaussian(R) 94 system (copyright 1995, Gaussian, Inc.),
 the Gaussian 92(TM) system (copyright 1992, Gaussian, Inc.),
 the Gaussian 90(TM) system (copyright 1990, Gaussian, Inc.),
 the Gaussian 88(TM) system (copyright 1988, Gaussian, Inc.),
 the Gaussian 86(TM) system (copyright 1986, Carnegie Mellon
 University), and the Gaussian 82(TM) system (copyright 1983,
 Carnegie Mellon University). Gaussian is a federally registered
 trademark of Gaussian, Inc.
  
 This software contains proprietary and confidential information,
 including trade secrets, belonging to Gaussian, Inc.
  
 This software is provided under written license and may be
 used, copied, transmitted, or stored only in accord with that
 written license.
  
 The following legend is applicable only to US Government
 contracts under FAR:
  
                    RESTRICTED RIGHTS LEGEND
  
 Use, reproduction and disclosure by the US Government is
 subject to restrictions as set forth in subparagraphs (a)
 and (c) of the Commercial Computer Software - Restricted
 Rights clause in FAR 52.227-19.
  
 Gaussian, Inc.
 340 Quinnipiac St., Bldg. 40, Wallingford CT 06492
  
  
 ---------------------------------------------------------------
 Warning -- This program may not be used in any manner that
 competes with the business of Gaussian, Inc. or will provide
 assistance to any competitor of Gaussian, Inc.  The licensee
 of this program is prohibited from giving any competitor of
 Gaussian, Inc. access to this program.  By using this program,
 the user acknowledges that Gaussian, Inc. is engaged in the
 business of creating and licensing software in the field of
 computational chemistry and represents and warrants to the
 licensee that it is not a competitor of Gaussian, Inc. and that
 it will not use this program in any manner prohibited above.
 ---------------------------------------------------------------
  

 Cite this work as:
 Gaussian 03, Revision C.02,
 M. J. Frisch, G. W. Trucks, H. B. Schlegel, G. E. Scuseria, 
 M. A. Robb, J. R. Cheeseman, J. A. Montgomery, Jr., T. Vreven, 
 K. N. Kudin, J. C. Burant, J. M. Millam, S. S. Iyengar, J. Tomasi, 
 V. Barone, B. Mennucci, M. Cossi, G. Scalmani, N. Rega, 
 G. A. Petersson, H. Nakatsuji, M. Hada, M. Ehara, K. Toyota, 
 R. Fukuda, J. Hasegawa, M. Ishida, T. Nakajima, Y. Honda, O. Kitao, 
 H. Nakai, M. Klene, X. Li, J. E. Knox, H. P. Hratchian, J. B. Cross, 
 C. Adamo, J. Jaramillo, R. Gomperts, R. E. Stratmann, O. Yazyev, 
 A. J. Austin, R. Cammi, C. Pomelli, J. W. Ochterski, P. Y. Ayala, 
 K. Morokuma, G. A. Voth, P. Salvador, J. J. Dannenberg, 
 V. G. Zakrzewski, S. Dapprich, A. D. Daniels, M. C. Strain, 
 O. Farkas, D. K. Malick, A. D. Rabuck, K. Raghavachari, 
 J. B. Foresman, J. V. Ortiz, Q. Cui, A. G. Baboul, S. Clifford, 
 J. Cioslowski, B. B. Stefanov, G. Liu, A. Liashenko, P. Piskorz, 
 I. Komaromi, R. L. Martin, D. J. Fox, T. Keith, M. A. Al-Laham, 
 C. Y. Peng, A. Nanayakkara, M. Challacombe, P. M. W. Gill, 
 B. Johnson, W. Chen, M. W. Wong, C. Gonzalez, and J. A. Pople, 
 Gaussian, Inc., Wallingford CT, 2004.
 
 ******************************************
 Gaussian 03:  AM64L-G03RevC.02 12-Jun-2004
                25-May-2007 
 ******************************************
 ------------------------------------
 #P PM3 Opt=(Z-matrix,MaxStep=5) Test
 ------------------------------------
 1/8=5,10=7,14=-1,18=40,26=3,38=1/1,3;
 2/17=6,18=5,29=3,40=1/2;
 3/5=2,11=9,12=1,16=1,25=1,30=1/1;
 4/5=3,11=1,20=7,22=1,24=3,35=1/1,2;
 6/7=2,8=2,9=2,10=2/1;
 7/29=1/16;
 1/8=5,10=7,14=-1,18=40/3(1);
 99//99;
 2/29=3/2;
 3/5=2,11=9,12=1,16=1,25=1,30=1/1;
 4/5=5,11=1,16=3,20=7,22=1,24=3,35=1/1,2;
 7//16;
 1/8=5,14=-1,18=40/3(-4);
 2/29=3/2;
 6/7=2,8=2,9=2,10=2/1;
 99//99;
 Leave Link    1 at Fri May 25 18:41:34 2007, MaxMem=          0 cpu:       0.5
 (Enter /ext/software/64/g03/l101.exe)


 Symbolic Z-matrix:
 Charge =  0 Multiplicity = 1
 h
 n                    1    nh2
 h                    2    hn3      1    hnh3
 h                    2    hn4      1    hnh4     3    dih4     0
 c                    2    cn5      1    cnh5     3    dih5     0
 o                    5    oc6      2    ocn6     4    dih6     0
 n                    5    nc7      2    ncn7     4    dih7     0
 h                    7    hn8      5    hnc8     6    dih8     0
       Variables:
  nh2                   1.008                    
  hn3                   1.008                    
  hnh3                109.471                    
  hn4                   1.008                    
  hnh4                109.471                    
  dih4                120.                       
  cn5                   1.44                     
  cnh5                109.471                    
  dih5               -120.                       
  oc6                   1.22                     
  ocn6                120.                       
  dih6               -120.                       
  nc7                   1.44                     
  ncn7                120.                       
  dih7                 60.                       
  hn8                   1.008                    
  hnc8                109.471                    
  dih8                  0.                       
 
     4 tetrahedral angles replaced.
    4 tetrahedral angles replaced.
                    Isotopes and Nuclear Properties:

  Atom         1           2           3           4           5           6           7           8
 IAtWgt=           1          14           1           1          12          16          14           1
 AtmWgt=   1.0078250  14.0030740   1.0078250   1.0078250  12.0000000  15.9949146  14.0030740   1.0078250
 IAtSpn=           1           2           1           1           0           0           2           1
 AtZEff=   0.0000000   0.0000000   0.0000000   0.0000000   0.0000000   0.0000000   0.0000000   0.0000000
 AtQMom=   0.0000000   1.5600000   0.0000000   0.0000000   0.0000000   0.0000000   1.5600000   0.0000000
 AtGFac=   2.7928460   0.4037610   2.7928460   2.7928460   0.0000000   0.0000000   0.4037610   2.7928460
 Leave Link  101 at Fri May 25 18:41:34 2007, MaxMem=    6291456 cpu:       0.2
 (Enter /ext/software/64/g03/l103.exe)

 GradGradGradGradGradGradGradGradGradGradGradGradGradGradGradGradGradGrad
 Berny optimization.
 Initialization pass.
                       ----------------------------
                       !    Initial Parameters    !
                       ! (Angstroms and Degrees)  !
 ----------------------                            ----------------------
 !      Name          Value   Derivative information (Atomic Units)     !
 ------------------------------------------------------------------------
 !       nh2         1.008    estimate D2E/DX2                          !
 !       hn3         1.008    estimate D2E/DX2                          !
 !      hnh3       109.4712   estimate D2E/DX2                          !
 !       hn4         1.008    estimate D2E/DX2                          !
 !      hnh4       109.4712   estimate D2E/DX2                          !
 !      dih4       120.0      estimate D2E/DX2                          !
 !       cn5         1.44     estimate D2E/DX2                          !
 !      cnh5       109.4712   estimate D2E/DX2                          !
 !      dih5      -120.0      estimate D2E/DX2                          !
 !       oc6         1.22     estimate D2E/DX2                          !
 !      ocn6       120.0      estimate D2E/DX2                          !
 !      dih6      -120.0      estimate D2E/DX2                          !
 !       nc7         1.44     estimate D2E/DX2                          !
 !      ncn7       120.0      estimate D2E/DX2                          !
 !      dih7        60.0      estimate D2E/DX2                          !
 !       hn8         1.008    estimate D2E/DX2                          !
 !      hnc8       109.4712   estimate D2E/DX2                          !
 !      dih8         0.0      estimate D2E/DX2                          !
 ------------------------------------------------------------------------
 Trust Radius=5.00D-02 FncErr=1.00D-07 GrdErr=1.00D-06
 Number of steps in this run=  28 maximum allowed number of steps= 100.
 GradGradGradGradGradGradGradGradGradGradGradGradGradGradGradGradGradGrad

 Leave Link  103 at Fri May 25 18:41:34 2007, MaxMem=    6291456 cpu:       0.0
 (Enter /ext/software/64/g03/l202.exe)
 ------------------------------------------------------------------------
                         Z-MATRIX (ANGSTROMS AND DEGREES)
 CD Cent Atom  N1     Length/X     N2    Alpha/Y     N3     Beta/Z      J
 ------------------------------------------------------------------------
   1   1  H 
   2   2  N     1   1.008000(  1)
   3   3  H     2   1.008000(  2)   1  109.471(  8)
   4   4  H     2   1.008000(  3)   1  109.471(  9)   3  120.000( 14)   0
   5   5  C     2   1.440000(  4)   1  109.471( 10)   3 -120.000( 15)   0
   6   6  O     5   1.220000(  5)   2  120.000( 11)   4 -120.000( 16)   0
   7   7  N     5   1.439997(  6)   2  120.000( 12)   4   60.000( 17)   0
   8   8  H     7   1.008000(  7)   5  109.471( 13)   6    0.000( 18)   0
 ------------------------------------------------------------------------
                         Z-Matrix orientation:                         
 ---------------------------------------------------------------------
 Center     Atomic     Atomic              Coordinates (Angstroms)
 Number     Number      Type              X           Y           Z
 ---------------------------------------------------------------------
    1          1             0        0.000000    0.000000    0.000000
    2          7             0        0.000000    0.000000    1.008000
    3          1             0        0.950352    0.000000    1.344000
    4          1             0       -0.475176    0.823029    1.344000
    5          6             0       -0.678823   -1.175755    1.488000
    6          8             0       -0.085920   -1.978818    2.189396
    7          7             0       -2.057461   -1.403632    1.140123
    8          1             0       -2.371144   -2.265975    1.557295
 ---------------------------------------------------------------------
                    Distance matrix (angstroms):
                    1          2          3          4          5
     1  H    0.000000
     2  N    1.008000   0.000000
     3  H    1.646057   1.008000   0.000000
     4  H    1.646057   1.008000   1.646057   0.000000
     5  C    2.014285   1.440000   2.014285   2.014285   0.000000
     6  O    2.952382   2.306252   2.388362   2.952382   1.220000
     7  N    2.739199   2.494151   3.325460   2.739199   1.439997
     8  H    3.630721   3.325461   4.026471   3.630721   2.014282
                    6          7          8
     6  O    0.000000
     7  N    2.306250   0.000000
     8  H    2.388359   1.008000   0.000000
                           Interatomic angles:
       H1-N2-H3=109.4712       H1-N2-H4=109.4712       H3-N2-H4=109.4712
       H1-N2-C5=109.4712       H3-N2-C5=109.4712       H4-N2-C5=109.4712
       N2-C5-O6=120.           N2-C5-N7=120.           O6-C5-N7=120.    
       C5-N7-H8=109.4712
 Stoichiometry    CH4N2O
 Framework group  CS[SG(CH2N2O),X(H2)]
 Deg. of freedom    12
 Full point group                 CS      NOp   2
 Largest Abelian subgroup         CS      NOp   2
 Largest concise Abelian subgroup CS      NOp   2
                         Standard orientation:                         
 ---------------------------------------------------------------------
 Center     Atomic     Atomic              Coordinates (Angstroms)
 Number     Number      Type              X           Y           Z
 ---------------------------------------------------------------------
    1          1             0        0.145995   -1.707424    0.823029
    2          7             0        0.481478   -1.231883    0.000000
    3          1             0        1.489477   -1.230786    0.000000
    4          1             0        0.145995   -1.707424   -0.823029
    5          6             0        0.000000    0.125239    0.000000
    6          8             0        0.791783    1.053398    0.000000
    7          7             0       -1.416038    0.386827    0.000000
    8          1             0       -1.573807    1.382404    0.000000
 ---------------------------------------------------------------------
 Rotational constants (GHZ):     11.9860646      8.8459743      5.2336098
 Leave Link  202 at Fri May 25 18:41:34 2007, MaxMem=    6291456 cpu:       0.1
 (Enter /ext/software/64/g03/l301.exe)
 Standard basis: VSTO-3G (5D, 7F)
 There are    15 symmetry adapted basis functions of A'  symmetry.
 There are     5 symmetry adapted basis functions of A"  symmetry.
 Integral buffers will be    131072 words long.
 Raffenetti 1 integral format.
 Two-electron integral symmetry is turned on.
    20 basis functions,    60 primitive gaussians,    20 cartesian basis functions
    12 alpha electrons       12 beta electrons
       nuclear repulsion energy        68.6039147637 Hartrees.
 IExCor=   0 DFT=F Ex=HF Corr=None ExCW=0 ScaHFX=  1.000000
 ScaDFX=  1.000000  1.000000  1.000000  1.000000
 IRadAn=      0 IRanWt=     -1 IRanGd=            0 ICorTp=0
 NAtoms=    8 NActive=    8 NUniq=    7 SFac= 1.40D+00 NAtFMM=   60 Big=F
 Leave Link  301 at Fri May 25 18:41:34 2007, MaxMem=    6291456 cpu:       0.0
 (Enter /ext/software/64/g03/l401.exe)
 Simple Huckel Guess.
 Initial guess orbital symmetries:
       Occupied  (A') (A') (A') (A') (A") (A') (A') (A") (A') (A')
                 (A") (A')
       Virtual   (A") (A') (A') (A") (A') (A') (A') (A')
 The electronic state of the initial guess is 1-A'.
 Leave Link  401 at Fri May 25 18:41:34 2007, MaxMem=    6291456 cpu:       0.0
 (Enter /ext/software/64/g03/l402.exe)
 RHF-PM3 calculation of energy and first derivatives.
 MO and density RWFs will be updated without deorthogonalization.
 Closed-shell calculation:      12 occupied levels.
 NNHCO=    0.
 References:
  H: (PM3): J. J. P. STEWART, J. COMP. CHEM.     10, 209 (1989).
  C: (PM3): J. J. P. STEWART, J. COMP. CHEM.     10, 209 (1989).
  N: (PM3): J. J. P. STEWART, J. COMP. CHEM.     10, 209 (1989).
  O: (PM3): J. J. P. STEWART, J. COMP. CHEM.     10, 209 (1989).
 Ext34=T Pulay=F Camp-King=F BShift= 0.00D+00
 It=  1 PL= 0.102D+01 DiagD=T ESCF=      9.416266 Diff= 0.508D+01 RMSDP= 0.346D+00.
 It=  2 PL= 0.919D-01 DiagD=T ESCF=      0.687650 Diff=-0.873D+01 RMSDP= 0.143D-01.
 It=  3 PL= 0.305D-01 DiagD=F ESCF=      0.168553 Diff=-0.519D+00 RMSDP= 0.795D-02.
 It=  4 PL= 0.855D-02 DiagD=F ESCF=      0.041692 Diff=-0.127D+00 RMSDP= 0.135D-02.
 It=  5 PL= 0.406D-02 DiagD=F ESCF=      0.080219 Diff= 0.385D-01 RMSDP= 0.724D-03.
 It=  6 PL= 0.267D-02 DiagD=F ESCF=      0.078983 Diff=-0.124D-02 RMSDP= 0.109D-02.
 It=  7 PL= 0.587D-03 DiagD=F ESCF=      0.077254 Diff=-0.173D-02 RMSDP= 0.689D-04.
 It=  8 PL= 0.265D-03 DiagD=F ESCF=      0.078263 Diff= 0.101D-02 RMSDP= 0.361D-04.
 It=  9 PL= 0.159D-03 DiagD=F ESCF=      0.078261 Diff=-0.270D-05 RMSDP= 0.552D-04.
 It= 10 PL= 0.246D-04 DiagD=F ESCF=      0.078257 Diff=-0.386D-05 RMSDP= 0.453D-05.
 It= 11 PL= 0.140D-04 DiagD=F ESCF=      0.078259 Diff= 0.231D-05 RMSDP= 0.216D-05.
 It= 12 PL= 0.858D-05 DiagD=F ESCF=      0.078259 Diff=-0.990D-08 RMSDP= 0.271D-05.
 It= 13 PL= 0.160D-05 DiagD=F ESCF=      0.078259 Diff=-0.956D-08 RMSDP= 0.269D-06.
 It= 14 PL= 0.122D-05 DiagD=F ESCF=      0.078259 Diff= 0.517D-08 RMSDP= 0.161D-06.
 It= 15 PL= 0.777D-06 DiagD=F ESCF=      0.078259 Diff=-0.551D-10 RMSDP= 0.254D-06.
 It= 16 PL= 0.102D-06 DiagD=F ESCF=      0.078259 Diff=-0.800D-10 RMSDP= 0.216D-07.
 Energy=    0.002876021624 NIter=  17.
 Dipole moment=       1.415209      -2.765602       0.000000
 Leave Link  402 at Fri May 25 18:41:35 2007, MaxMem=    6291456 cpu:       0.0
 (Enter /ext/software/64/g03/l601.exe)
 Copying SCF densities to generalized density rwf, ISCF=0 IROHF=0.

 **********************************************************************

            Population analysis using the SCF density.

 **********************************************************************

 Orbital symmetries:
       Occupied  (A') (A') (A') (A') (A") (A') (A') (A') (A") (A')
                 (A') (A")
       Virtual   (A') (A") (A') (A') (A") (A') (A') (A')
 The electronic state is 1-A'.
 Alpha  occ. eigenvalues --   -1.39579  -1.20625  -0.95365  -0.75969  -0.70639
 Alpha  occ. eigenvalues --   -0.69765  -0.59489  -0.54178  -0.49902  -0.41258
 Alpha  occ. eigenvalues --   -0.33517  -0.29631
 Alpha virt. eigenvalues --   -0.00267   0.03502   0.06108   0.08050   0.08561
 Alpha virt. eigenvalues --    0.20618   0.23699   0.28091
          Condensed to atoms (all electrons):
              1          2          3          4          5          6
     1  H    0.990636   0.000000   0.000000   0.000000   0.000000   0.000000
     2  N    0.000000   4.192946   0.000000   0.000000   0.000000   0.000000
     3  H    0.000000   0.000000   0.999018   0.000000   0.000000   0.000000
     4  H    0.000000   0.000000   0.000000   0.990636   0.000000   0.000000
     5  C    0.000000   0.000000   0.000000   0.000000   4.001611   0.000000
     6  O    0.000000   0.000000   0.000000   0.000000   0.000000   6.455107
     7  N    0.000000   0.000000   0.000000   0.000000   0.000000   0.000000
     8  H    0.000000   0.000000   0.000000   0.000000   0.000000   0.000000
              7          8
     1  H    0.000000   0.000000
     2  N    0.000000   0.000000
     3  H    0.000000   0.000000
     4  H    0.000000   0.000000
     5  C    0.000000   0.000000
     6  O    0.000000   0.000000
     7  N    5.469892   0.000000
     8  H    0.000000   0.900153
 Mulliken atomic charges:
              1
     1  H    0.009364
     2  N    0.807054
     3  H    0.000982
     4  H    0.009364
     5  C   -0.001611
     6  O   -0.455107
     7  N   -0.469892
     8  H    0.099847
 Sum of Mulliken charges=   0.00000
 Atomic charges with hydrogens summed into heavy atoms:
              1
     1  H    0.000000
     2  N    0.826763
     3  H    0.000000
     4  H    0.000000
     5  C   -0.001611
     6  O   -0.455107
     7  N   -0.370045
     8  H    0.000000
 Sum of Mulliken charges=   0.00000
 Leave Link  601 at Fri May 25 18:41:35 2007, MaxMem=    6291456 cpu:       0.0
 (Enter /ext/software/64/g03/l716.exe)
 Dipole        = 1.41520881D+00-2.76560233D+00 1.59432341D-16
 ***** Axes restored to original set *****
 -------------------------------------------------------------------
 Center     Atomic                   Forces (Hartrees/Bohr)
 Number     Number              X              Y              Z
 -------------------------------------------------------------------
    1          1           0.001006677    0.002697762    0.005876973
    2          7           0.014239954    0.031486077   -0.014246622
    3          1          -0.002666387    0.004147125   -0.003482296
    4          1           0.004388106   -0.003159044   -0.003687153
    5          6          -0.140704494   -0.055904278   -0.015512312
    6          8           0.040240571   -0.014271110    0.022966425
    7          7           0.079555646    0.022962167    0.014065770
    8          1           0.003939926    0.012041300   -0.005980786
 -------------------------------------------------------------------
 Cartesian Forces:  Max     0.140704494 RMS     0.037795394
 ------------------------------------------------------------------------
           Internal Coordinate Forces (Hartree/Bohr or radian)
 Cent Atom N1     Length/X     N2     Alpha/Y      N3      Beta/Z       J
 ------------------------------------------------------------------------
   1  H 
   2  N     1  -0.005877(   1)
   3  H     2  -0.003675(   2)  1  -0.004561(   8)
   4  H     2  -0.005877(   3)  1  -0.003492(   9)  3  -0.003988(  14)  0
   5  C     2   0.041896(   4)  1  -0.002119(  10)  3  -0.003460(  15)  0
   6  O     5   0.042154(   5)  2  -0.055209(  11)  4   0.000000(  16)  0
   7  N     5  -0.087430(   6)  2  -0.068530(  12)  4   0.000000(  17)  0
   8  H     7  -0.014003(   7)  5   0.000879(  13)  6   0.000000(  18)  0
 ------------------------------------------------------------------------
 Internal  Forces:  Max     0.087430257 RMS     0.032715582
 Force constants in Cartesian coordinates: 
                1             2             3             4             5
      1  0.720847D-01
      2 -0.315761D-02  0.684386D-01
      3  0.000000D+00  0.000000D+00  0.463090D+00
      4 -0.950348D-01  0.576847D-02  0.000000D+00  0.864859D+00
      5  0.576847D-02 -0.883739D-01  0.000000D+00 -0.318331D-01  0.809364D+00
      6  0.626930D-02  0.108587D-01 -0.463090D+00  0.295573D-01  0.529820D-02
      7  0.147632D-01 -0.361989D-05  0.000000D+00 -0.424165D+00  0.192282D-02
      8 -0.108597D-04  0.490058D-03  0.000000D+00 -0.831490D-02 -0.883739D-01
      9 -0.417565D-01  0.102386D-04  0.000000D+00 -0.110096D+00 -0.543857D-02
     10  0.406460D-02 -0.618768D-02  0.000000D+00 -0.169554D+00  0.138685D+00
     11 -0.618044D-02  0.111886D-01  0.000000D+00  0.148923D+00 -0.342985D+00
     12  0.208871D-01 -0.361571D-01  0.000000D+00  0.503380D-01 -0.980652D-01
     13  0.399849D-02  0.365193D-02  0.000000D+00 -0.205443D+00 -0.102013D+00
     14  0.379494D-02  0.813282D-02  0.000000D+00 -0.106317D+00 -0.296580D+00
     15  0.149504D-01  0.250859D-01  0.000000D+00  0.220392D-01  0.943367D-01
     16  0.810623D-03 -0.468014D-03  0.000000D+00  0.283001D-01 -0.110597D-01
     17 -0.140404D-02  0.810623D-03  0.000000D+00  0.171180D-01 -0.375397D-02
     18 -0.229279D-02  0.132374D-02  0.000000D+00 -0.432339D-02  0.505084D-02
     19 -0.686780D-03  0.396512D-03  0.000000D+00  0.809828D-03 -0.107448D-02
     20  0.118954D-02 -0.686780D-03  0.000000D+00 -0.249473D-01  0.100171D-01
     21  0.194251D-02 -0.112151D-02  0.000000D+00  0.131324D-01 -0.230357D-02
     22  0.000000D+00  0.000000D+00  0.000000D+00  0.228934D-03 -0.396525D-03
     23  0.000000D+00  0.000000D+00  0.000000D+00 -0.396525D-03  0.686802D-03
     24  0.000000D+00  0.000000D+00  0.000000D+00 -0.647523D-03  0.112154D-02
                6             7             8             9            10
      6  0.843600D+00
      7 -0.116365D+00  0.419645D+00
      8 -0.905815D-02 -0.105254D-02  0.684386D-01
      9 -0.133960D+00  0.122881D+00  0.297702D-02  0.115530D+00
     10  0.503380D-01 -0.611257D-02  0.320267D-01  0.172890D-01  0.157152D+00
     11 -0.105304D+00 -0.206015D-02  0.111886D-01  0.582697D-02 -0.152603D+00
     12 -0.133960D+00 -0.359817D-02  0.178862D-01  0.101772D-01 -0.588624D-01
     13  0.194030D-01 -0.408905D-02 -0.227199D-01  0.115656D-01  0.145327D-01
     14  0.928147D-01  0.112198D-02  0.838051D-02 -0.317343D-02 -0.120639D-01
     15 -0.133609D+00 -0.303452D-02 -0.116028D-01  0.858292D-02 -0.899810D-02
     16  0.129318D-01 -0.270208D-03  0.468014D-03  0.764263D-03 -0.540416D-03
     17  0.150132D-01  0.468014D-03 -0.810623D-03 -0.132374D-02  0.936027D-03
     18  0.625779D-02  0.764263D-03 -0.132374D-02 -0.216166D-02  0.152853D-02
     19 -0.148666D-02  0.228927D-03 -0.396512D-03 -0.647502D-03  0.457853D-03
     20 -0.107439D-01 -0.396512D-03  0.686780D-03  0.112151D-02 -0.793025D-03
     21  0.129294D-01 -0.647502D-03  0.112151D-02  0.183141D-02 -0.129500D-02
     22 -0.647523D-03  0.000000D+00  0.000000D+00  0.000000D+00  0.000000D+00
     23  0.112154D-02  0.000000D+00  0.000000D+00  0.000000D+00  0.000000D+00
     24  0.183147D-02  0.000000D+00  0.000000D+00  0.000000D+00  0.000000D+00
               11            12            13            14            15
     11  0.330932D+00
     12  0.107907D+00  0.115530D+00
     13  0.119209D-01 -0.864782D-02  0.876282D+00
     14 -0.103238D-01  0.822714D-02 -0.809326D-01  0.866203D+00
     15 -0.842937D-02  0.792242D-02  0.310645D+00 -0.474652D+00  0.538319D+00
     16  0.000000D+00 -0.764263D-03 -0.319756D+00  0.248759D+00 -0.251179D+00
     17  0.000000D+00  0.132374D-02  0.248759D+00 -0.465745D+00  0.348555D+00
     18  0.000000D+00  0.216166D-02 -0.251179D+00  0.348555D+00 -0.342428D+00
     19  0.000000D+00  0.647502D-03 -0.365941D+00 -0.302507D-01 -0.985645D-01
     20  0.000000D+00 -0.112151D-02 -0.583174D-01 -0.114150D+00  0.279963D-01
     21  0.000000D+00 -0.183141D-02 -0.813772D-01  0.379194D-01 -0.867545D-01
     22  0.000000D+00  0.000000D+00  0.416758D-03 -0.241110D-01  0.141423D-01
     23  0.000000D+00  0.000000D+00 -0.349307D-03  0.408241D-02 -0.128988D-02
     24  0.000000D+00  0.000000D+00 -0.408686D-03 -0.969093D-02  0.796768D-02
               16            17            18            19            20
     16  0.290969D+00
     17 -0.264365D+00  0.448113D+00
     18  0.257645D+00 -0.355551D+00  0.328953D+00
     19  0.757238D-03 -0.197968D-02 -0.290674D-02  0.446347D+00
     20  0.261980D-01  0.221964D-01  0.326805D-02  0.149898D+00  0.427422D+00
     21 -0.201620D-01 -0.669428D-02  0.937868D-02  0.573977D-01 -0.193820D+00
     22 -0.270217D-03  0.468030D-03  0.764289D-03 -0.819737D-01 -0.928314D-01
     23  0.468030D-03 -0.810651D-03 -0.132379D-02 -0.116593D+00 -0.345486D+00
     24  0.764289D-03 -0.132379D-02 -0.216174D-02  0.455602D-01  0.173300D+00
               21            22            23            24
     21  0.163355D+00
     22  0.310092D-01  0.815982D-01
     23  0.164899D+00  0.116871D+00  0.341527D+00
     24 -0.989083D-01 -0.452683D-01 -0.163407D+00  0.912709D-01
 Force constants in internal coordinates: 
                1             2             3             4             5
      1  0.463090D+00
      2  0.000000D+00  0.463090D+00
      3  0.000000D+00  0.000000D+00  0.463090D+00
      4  0.000000D+00  0.000000D+00  0.000000D+00  0.395854D+00
      5  0.000000D+00  0.000000D+00  0.000000D+00  0.000000D+00  0.953833D+00
      6  0.000000D+00  0.000000D+00  0.000000D+00  0.000000D+00  0.000000D+00
      7  0.000000D+00  0.000000D+00  0.000000D+00  0.000000D+00  0.000000D+00
      8  0.000000D+00  0.000000D+00  0.000000D+00  0.000000D+00  0.000000D+00
      9  0.000000D+00  0.000000D+00  0.000000D+00  0.000000D+00  0.000000D+00
     10  0.000000D+00  0.000000D+00  0.000000D+00  0.000000D+00  0.000000D+00
     11  0.000000D+00  0.000000D+00  0.000000D+00  0.000000D+00  0.000000D+00
     12  0.000000D+00  0.000000D+00  0.000000D+00  0.000000D+00  0.000000D+00
     13  0.000000D+00  0.000000D+00  0.000000D+00  0.000000D+00  0.000000D+00
     14  0.000000D+00  0.000000D+00  0.000000D+00  0.000000D+00  0.000000D+00
     15  0.000000D+00  0.000000D+00  0.000000D+00  0.000000D+00  0.000000D+00
     16  0.000000D+00  0.000000D+00  0.000000D+00  0.000000D+00  0.000000D+00
     17  0.000000D+00  0.000000D+00  0.000000D+00  0.000000D+00  0.000000D+00
     18  0.000000D+00  0.000000D+00  0.000000D+00  0.000000D+00  0.000000D+00
                6             7             8             9            10
      6  0.395858D+00
      7  0.000000D+00  0.463090D+00
      8  0.000000D+00  0.000000D+00  0.261554D+00
      9  0.000000D+00  0.000000D+00  0.611629D-01  0.281174D+00
     10  0.000000D+00  0.000000D+00  0.546646D-01  0.612046D-01  0.252760D+00
     11  0.000000D+00  0.000000D+00  0.000000D+00  0.000000D+00  0.000000D+00
     12  0.000000D+00  0.000000D+00  0.000000D+00  0.000000D+00  0.000000D+00
     13  0.000000D+00  0.000000D+00  0.000000D+00  0.000000D+00  0.000000D+00
     14  0.000000D+00  0.000000D+00 -0.755784D-01 -0.214816D-01  0.540713D-01
     15  0.000000D+00  0.000000D+00  0.647510D-01 -0.540713D-01  0.355990D-02
     16  0.000000D+00  0.000000D+00 -0.106797D-01 -0.213594D-01 -0.106797D-01
     17  0.000000D+00  0.000000D+00 -0.106797D-01 -0.213594D-01 -0.106797D-01
     18  0.000000D+00  0.000000D+00  0.000000D+00  0.000000D+00  0.000000D+00
               11            12            13            14            15
     11  0.500000D+00
     12  0.250000D+00  0.500000D+00
     13  0.000000D+00  0.000000D+00  0.160000D+00
     14  0.000000D+00  0.000000D+00  0.000000D+00  0.226546D+00
     15  0.000000D+00  0.000000D+00  0.000000D+00 -0.113269D+00  0.220800D+00
     16  0.000000D+00  0.000000D+00  0.000000D+00  0.116266D-01 -0.581328D-02
     17  0.000000D+00  0.000000D+00  0.000000D+00  0.116266D-01 -0.581328D-02
     18  0.000000D+00  0.000000D+00  0.000000D+00  0.000000D+00  0.000000D+00
               16            17            18
     16  0.802567D-01
     17 -0.453770D-01  0.802567D-01
     18  0.116270D-01 -0.116270D-01  0.232539D-01
 Leave Link  716 at Fri May 25 18:41:35 2007, MaxMem=    6291456 cpu:       0.0
 (Enter /ext/software/64/g03/l103.exe)

 GradGradGradGradGradGradGradGradGradGradGradGradGradGradGradGradGradGrad
 Berny optimization.
 Search for a local minimum.
 Step number   1 out of a maximum of  28
 All quantities printed in internal units (Hartrees-Bohrs-Radians)
 Second derivative matrix not updated -- first step.
 The second derivative matrix:
                          nh2       hn3      hnh3       hn4      hnh4
           nh2          0.46309
           hn3          0.00000   0.46309
           hnh3         0.00000   0.00000   0.26155
           hn4          0.00000   0.00000   0.00000   0.46309
           hnh4         0.00000   0.00000   0.06116   0.00000   0.28117
           dih4         0.00000   0.00000  -0.07558   0.00000  -0.02148
           cn5          0.00000   0.00000   0.00000   0.00000   0.00000
           cnh5         0.00000   0.00000   0.05466   0.00000   0.06120
           dih5         0.00000   0.00000   0.06475   0.00000  -0.05407
           oc6          0.00000   0.00000   0.00000   0.00000   0.00000
           ocn6         0.00000   0.00000   0.00000   0.00000   0.00000
           dih6         0.00000   0.00000  -0.01068   0.00000  -0.02136
           nc7          0.00000   0.00000   0.00000   0.00000   0.00000
           ncn7         0.00000   0.00000   0.00000   0.00000   0.00000
           dih7         0.00000   0.00000  -0.01068   0.00000  -0.02136
           hn8          0.00000   0.00000   0.00000   0.00000   0.00000
           hnc8         0.00000   0.00000   0.00000   0.00000   0.00000
           dih8         0.00000   0.00000   0.00000   0.00000   0.00000
                         dih4       cn5      cnh5      dih5       oc6
           dih4         0.22655
           cn5          0.00000   0.39585
           cnh5         0.05407   0.00000   0.25276
           dih5        -0.11327   0.00000   0.00356   0.22080
           oc6          0.00000   0.00000   0.00000   0.00000   0.95383
           ocn6         0.00000   0.00000   0.00000   0.00000   0.00000
           dih6         0.01163   0.00000  -0.01068  -0.00581   0.00000
           nc7          0.00000   0.00000   0.00000   0.00000   0.00000
           ncn7         0.00000   0.00000   0.00000   0.00000   0.00000
           dih7         0.01163   0.00000  -0.01068  -0.00581   0.00000
           hn8          0.00000   0.00000   0.00000   0.00000   0.00000
           hnc8         0.00000   0.00000   0.00000   0.00000   0.00000
           dih8         0.00000   0.00000   0.00000   0.00000   0.00000
                         ocn6      dih6       nc7      ncn7      dih7
           ocn6         0.50000
           dih6         0.00000   0.08026
           nc7          0.00000   0.00000   0.39586
           ncn7         0.25000   0.00000   0.00000   0.50000
           dih7         0.00000  -0.04538   0.00000   0.00000   0.08026
           hn8          0.00000   0.00000   0.00000   0.00000   0.00000
           hnc8         0.00000   0.00000   0.00000   0.00000   0.00000
           dih8         0.00000   0.01163   0.00000   0.00000  -0.01163
                          hn8      hnc8      dih8
           hn8          0.46309
           hnc8         0.00000   0.16000
           dih8         0.00000   0.00000   0.02325
     Eigenvalues ---    0.02068   0.02940   0.07596   0.12821   0.14793
     Eigenvalues ---    0.16000   0.23831   0.25000   0.37267   0.39585
     Eigenvalues ---    0.39586   0.41344   0.46309   0.46309   0.46309
     Eigenvalues ---    0.46309   0.75000   0.95383
 RFO step:  Lambda=-3.46207354D-02.
 Linear search not attempted -- first point.
 Maximum step size (   0.050) exceeded in Quadratic search.
    -- Step size scaled by   0.189
 Variable       Old X    -DE/DX   Delta X   Delta X   Delta X     New X
                                 (Linear)    (Quad)   (Total)
   nh2        1.90484  -0.00588   0.00000  -0.00223  -0.00223   1.90261
   hn3        1.90484  -0.00367   0.00000  -0.00140  -0.00140   1.90345
   hnh3       1.91063  -0.00456   0.00000  -0.00299  -0.00299   1.90765
   hn4        1.90484  -0.00588   0.00000  -0.00223  -0.00223   1.90261
   hnh4       1.91063  -0.00349   0.00000  -0.00319  -0.00319   1.90745
   dih4       2.09440  -0.00399   0.00000  -0.00654  -0.00654   2.08785
   cn5        2.72121   0.04190   0.00000   0.01842   0.01842   2.73962
   cnh5       1.91063  -0.00212   0.00000   0.00110   0.00110   1.91174
   dih5      -2.09440  -0.00346   0.00000  -0.00542  -0.00542  -2.09982
   oc6        2.30547   0.04215   0.00000   0.00807   0.00807   2.31354
   ocn6       2.09440  -0.05521   0.00000  -0.01049  -0.01049   2.08390
   dih6      -2.09440   0.00000   0.00000  -0.00063  -0.00063  -2.09502
   nc7        2.72120  -0.08743   0.00000  -0.03843  -0.03843   2.68277
   ncn7       2.09440  -0.06853   0.00000  -0.01935  -0.01935   2.07505
   dih7       1.04720   0.00000   0.00000  -0.00063  -0.00063   1.04657
   hn8        1.90484  -0.01400   0.00000  -0.00532  -0.00532   1.89952
   hnc8       1.91063   0.00088   0.00000   0.00085   0.00085   1.91149
   dih8       0.00000   0.00000   0.00000   0.00000   0.00000   0.00000
         Item               Value     Threshold  Converged?
 Maximum Force            0.087430     0.000450     NO 
 RMS     Force            0.032716     0.000300     NO 
 Maximum Displacement     0.038431     0.001800     NO 
 RMS     Displacement     0.011785     0.001200     NO 
 Predicted change in Energy=-5.974482D-03
 GradGradGradGradGradGradGradGradGradGradGradGradGradGradGradGradGradGrad

 Leave Link  103 at Fri May 25 18:41:36 2007, MaxMem=    6291456 cpu:       0.6
 (Enter /ext/software/64/g03/l202.exe)
 ------------------------------------------------------------------------
                         Z-MATRIX (ANGSTROMS AND DEGREES)
 CD Cent Atom  N1     Length/X     N2    Alpha/Y     N3     Beta/Z      J
 ------------------------------------------------------------------------
   1   1  H 
   2   2  N     1   1.006818(  1)
   3   3  H     2   1.007261(  2)   1  109.300(  8)
   4   4  H     2   1.006818(  3)   1  109.289(  9)   3  119.625( 14)   0
   5   5  C     2   1.449745(  4)   1  109.534( 10)   3 -120.311( 15)   0
   6   6  O     5   1.224270(  5)   2  119.399( 11)   4 -120.036( 16)   0
   7   7  N     5   1.419660(  6)   2  118.891( 12)   4   59.964( 17)   0
   8   8  H     7   1.005183(  7)   5  109.520( 13)   6    0.000( 18)   0
 ------------------------------------------------------------------------
                         Z-Matrix orientation:                         
 ---------------------------------------------------------------------
 Center     Atomic     Atomic              Coordinates (Angstroms)
 Number     Number      Type              X           Y           Z
 ---------------------------------------------------------------------
    1          1             0        0.000000    0.000000    0.000000
    2          7             0        0.000000    0.000000    1.006818
    3          1             0        0.950654    0.000000    1.339732
    4          1             0       -0.469757    0.826076    1.339398
    5          6             0       -0.689559   -1.179526    1.491574
    6          8             0       -0.088394   -1.979979    2.196353
    7          7             0       -2.049476   -1.374595    1.133793
    8          1             0       -2.385087   -2.229306    1.542727
 ---------------------------------------------------------------------
                    Distance matrix (angstroms):
                    1          2          3          4          5
     1  H    0.000000
     2  N    1.006818   0.000000
     3  H    1.642749   1.007261   0.000000
     4  H    1.642272   1.006818   1.643158   0.000000
     5  C    2.022762   1.449745   2.025990   2.023341   0.000000
     6  O    2.958395   2.311520   2.394522   2.958674   1.224270
     7  N    2.715760   2.471030   3.306464   2.716751   1.419660
     8  H    3.610880   3.308420   4.017235   3.611812   1.994861
                    6          7          8
     6  O    0.000000
     7  N    2.311140   0.000000
     8  H    2.400873   1.005183   0.000000
                           Interatomic angles:
       H1-N2-H3=109.3          H1-N2-H4=109.2887       H3-N2-H4=109.3402
       H1-N2-C5=109.5344       H3-N2-C5=109.7791       H4-N2-C5=109.5833
       N2-C5-O6=119.3988       N2-C5-N7=118.8914       O6-C5-N7=121.7098
       C5-N7-H8=109.5202
 Stoichiometry    CH4N2O
 Framework group  C1[X(CH4N2O)]
 Deg. of freedom    18
 Full point group                 C1      NOp   1
 Omega: Change in point group or standard orientation.

 Old FWG=CS   [SG(C1H2N2O1),X(H2)]
 New FWG=C01  [X(C1H4N2O1)]
 Largest Abelian subgroup         C1      NOp   1
 Largest concise Abelian subgroup C1      NOp   1
                         Standard orientation:                         
 ---------------------------------------------------------------------
 Center     Atomic     Atomic              Coordinates (Angstroms)
 Number     Number      Type              X           Y           Z
 ---------------------------------------------------------------------
    1          1             0       -1.495905   -0.830516   -0.821014
    2          7             0       -1.286727   -0.286678    0.000062
    3          1             0       -1.850517    0.548016   -0.000939
    4          1             0       -1.496833   -0.829977    0.821258
    5          6             0        0.118363    0.070371    0.000026
    6          8             0        0.438139    1.252142    0.000028
    7          7             0        1.089268   -0.965379   -0.000013
    8          1             0        2.010177   -0.562489   -0.000035
 ---------------------------------------------------------------------
 Rotational constants (GHZ):     11.8494513      8.9741052      5.2508502
 Leave Link  202 at Fri May 25 18:41:36 2007, MaxMem=    6291456 cpu:       0.2
 (Enter /ext/software/64/g03/l301.exe)
 Standard basis: VSTO-3G (5D, 7F)
 There are    20 symmetry adapted basis functions of A   symmetry.
 Integral buffers will be    131072 words long.
 Raffenetti 1 integral format.
 Two-electron integral symmetry is turned on.
    20 basis functions,    60 primitive gaussians,    20 cartesian basis functions
    12 alpha electrons       12 beta electrons
       nuclear repulsion energy        68.6673487734 Hartrees.
 IExCor=   0 DFT=F Ex=HF Corr=None ExCW=0 ScaHFX=  1.000000
 ScaDFX=  1.000000  1.000000  1.000000  1.000000
 IRadAn=      0 IRanWt=     -1 IRanGd=            0 ICorTp=0
 NAtoms=    8 NActive=    8 NUniq=    8 SFac= 1.00D+00 NAtFMM=   60 Big=F
 Leave Link  301 at Fri May 25 18:41:36 2007, MaxMem=    6291456 cpu:       0.0
 (Enter /ext/software/64/g03/l401.exe)
 Initial guess read from the read-write file:
 Guess basis will be translated and rotated to current coordinates.
 Initial guess orbital symmetries:
       Occupied  (A) (A) (A) (A) (A) (A) (A) (A) (A) (A) (A) (A)
       Virtual   (A) (A) (A) (A) (A) (A) (A) (A)
 The electronic state of the initial guess is 1-A.
 Leave Link  401 at Fri May 25 18:41:36 2007, MaxMem=    6291456 cpu:       0.0
 (Enter /ext/software/64/g03/l402.exe)
 RHF-PM3 calculation of energy and first derivatives.
 MO and density RWFs will be updated without deorthogonalization.
 Closed-shell calculation:      12 occupied levels.
 NNHCO=    0.
 References:
  H: (PM3): J. J. P. STEWART, J. COMP. CHEM.     10, 209 (1989).
  C: (PM3): J. J. P. STEWART, J. COMP. CHEM.     10, 209 (1989).
  N: (PM3): J. J. P. STEWART, J. COMP. CHEM.     10, 209 (1989).
  O: (PM3): J. J. P. STEWART, J. COMP. CHEM.     10, 209 (1989).
 Ext34=T Pulay=F Camp-King=F BShift= 0.00D+00
 It=  1 PL= 0.103D+01 DiagD=T ESCF=     62.665774 Diff= 0.583D+02 RMSDP= 0.346D+00.
 It=  2 PL= 0.155D+01 DiagD=T ESCF=     20.579542 Diff=-0.421D+02 RMSDP= 0.149D+00.
 It=  3 PL= 0.258D+00 DiagD=T ESCF=      4.168129 Diff=-0.164D+02 RMSDP= 0.569D-01.
 It=  4 PL= 0.411D-01 DiagD=T ESCF=     -0.721677 Diff=-0.489D+01 RMSDP= 0.827D-02.
 It=  5 PL= 0.208D-01 DiagD=F ESCF=     -0.048806 Diff= 0.673D+00 RMSDP= 0.371D-02.
 It=  6 PL= 0.126D-01 DiagD=F ESCF=     -0.077401 Diff=-0.286D-01 RMSDP= 0.491D-02.
 It=  7 PL= 0.233D-02 DiagD=F ESCF=     -0.107964 Diff=-0.306D-01 RMSDP= 0.464D-03.
 It=  8 PL= 0.122D-02 DiagD=F ESCF=     -0.090318 Diff= 0.176D-01 RMSDP= 0.229D-03.
 It=  9 PL= 0.730D-03 DiagD=F ESCF=     -0.090435 Diff=-0.117D-03 RMSDP= 0.285D-03.
 It= 10 PL= 0.235D-03 DiagD=F ESCF=     -0.090551 Diff=-0.116D-03 RMSDP= 0.325D-04.
 It= 11 PL= 0.129D-03 DiagD=F ESCF=     -0.090489 Diff= 0.623D-04 RMSDP= 0.173D-04.
 It= 12 PL= 0.765D-04 DiagD=F ESCF=     -0.090489 Diff=-0.613D-06 RMSDP= 0.257D-04.
 It= 13 PL= 0.109D-04 DiagD=F ESCF=     -0.090490 Diff=-0.843D-06 RMSDP= 0.206D-05.
 It= 14 PL= 0.621D-05 DiagD=F ESCF=     -0.090489 Diff= 0.492D-06 RMSDP= 0.106D-05.
 It= 15 PL= 0.384D-05 DiagD=F ESCF=     -0.090489 Diff=-0.247D-08 RMSDP= 0.144D-05.
 It= 16 PL= 0.105D-05 DiagD=F ESCF=     -0.090489 Diff=-0.278D-08 RMSDP= 0.153D-06.
 It= 17 PL= 0.602D-06 DiagD=F ESCF=     -0.090489 Diff= 0.158D-08 RMSDP= 0.789D-07.
 Energy=   -0.003325492613 NIter=  18.
 Dipole moment=      -3.023639      -0.408431      -0.000008
 Leave Link  402 at Fri May 25 18:41:36 2007, MaxMem=    6291456 cpu:       0.0
 (Enter /ext/software/64/g03/l716.exe)
 Dipole        =-3.02363875D+00-4.08431115D-01-8.23422225D-06
 ***** Axes restored to original set *****
 -------------------------------------------------------------------
 Center     Atomic                   Forces (Hartrees/Bohr)
 Number     Number              X              Y              Z
 -------------------------------------------------------------------
    1          1           0.000954021    0.002345095    0.004635532
    2          7           0.012851733    0.027614795   -0.012630518
    3          1          -0.002202239    0.003391561   -0.002791403
    4          1           0.003664623   -0.002419841   -0.002964472
    5          6          -0.125733658   -0.049864172   -0.013410011
    6          8           0.035633086   -0.010673840    0.019105647
    7          7           0.072095874    0.019375142    0.013402560
    8          1           0.002736560    0.010231261   -0.005347334
 -------------------------------------------------------------------
 Cartesian Forces:  Max     0.125733658 RMS     0.033717503
 ------------------------------------------------------------------------
           Internal Coordinate Forces (Hartree/Bohr or radian)
 Cent Atom N1     Length/X     N2     Alpha/Y      N3      Beta/Z       J
 ------------------------------------------------------------------------
   1  H 
   2  N     1  -0.004636(   1)
   3  H     2  -0.003001(   2)  1  -0.003629(   8)
   4  H     2  -0.004675(   3)  1  -0.002859(   9)  3  -0.003575(  14)  0
   5  C     2   0.037026(   4)  1  -0.001421(  10)  3  -0.002518(  15)  0
   6  O     5   0.035475(   5)  2  -0.051224(  11)  4  -0.000003(  16)  0
   7  N     5  -0.077781(   6)  2  -0.062007(  12)  4  -0.000001(  17)  0
   8  H     7  -0.011789(   7)  5   0.002538(  13)  6  -0.000003(  18)  0
 ------------------------------------------------------------------------
 Internal  Forces:  Max     0.077781458 RMS     0.029238780
 Leave Link  716 at Fri May 25 18:41:37 2007, MaxMem=    6291456 cpu:       0.0
 (Enter /ext/software/64/g03/l103.exe)

 GradGradGradGradGradGradGradGradGradGradGradGradGradGradGradGradGradGrad
 Berny optimization.
 Search for a local minimum.
 Step number   2 out of a maximum of  28
 All quantities printed in internal units (Hartrees-Bohrs-Radians)
 Update second derivatives using D2CorN and points  1  2
 Trust test= 1.04D+00 RLast= 5.00D-02 DXMaxT set to 7.07D-02
 The second derivative matrix:
                          nh2       hn3      hnh3       hn4      hnh4
           nh2          0.46328
           hn3          0.00007   0.46311
           hnh3         0.00020   0.00006   0.26176
           hn4          0.00017   0.00006   0.00018   0.46324
           hnh4         0.00017   0.00004   0.06132   0.00014   0.28128
           dih4         0.00022   0.00000  -0.07542   0.00017  -0.02145
           cn5          0.00032   0.00058   0.00081   0.00046   0.00124
           cnh5         0.00007   0.00007   0.05478   0.00008   0.06135
           dih5         0.00044   0.00016   0.06522   0.00039  -0.05368
           oc6          0.00012   0.00024   0.00033   0.00018   0.00052
           ocn6        -0.00229  -0.00165  -0.00328  -0.00237  -0.00371
           dih6         0.00003   0.00001  -0.01065   0.00003  -0.02134
           nc7         -0.00090  -0.00135  -0.00200  -0.00120  -0.00291
           ncn7        -0.00178  -0.00151  -0.00278  -0.00193  -0.00336
           dih7         0.00004   0.00001  -0.01065   0.00003  -0.02134
           hn8          0.00011  -0.00004   0.00003   0.00007  -0.00007
           hnc8         0.00077   0.00050   0.00104   0.00077   0.00113
           dih8         0.00000   0.00000   0.00000   0.00000   0.00000
                         dih4       cn5      cnh5      dih5       oc6
           dih4         0.22625
           cn5          0.00359   0.37803
           cnh5         0.05444  -0.00149   0.25265
           dih5        -0.11277   0.00088   0.00374   0.22183
           oc6          0.00152  -0.00765  -0.00064   0.00034   0.95055
           ocn6        -0.00822   0.02754   0.00189  -0.00562   0.01198
           dih6         0.01164   0.00024  -0.01065  -0.00573   0.00010
           nc7         -0.00816   0.03910   0.00322  -0.00239   0.01680
           ncn7        -0.00800   0.03063   0.00228  -0.00443   0.01326
           dih7         0.01164   0.00023  -0.01065  -0.00573   0.00009
           hn8         -0.00045   0.00350   0.00033   0.00023   0.00149
           hnc8         0.00237  -0.00703  -0.00044   0.00187  -0.00307
           dih8         0.00000   0.00001   0.00000   0.00000   0.00000
                         ocn6      dih6       nc7      ncn7      dih7
           ocn6         0.47440
           dih6        -0.00073   0.08026
           nc7         -0.05855  -0.00056   0.31032
           ncn7         0.21428  -0.00065  -0.06591   0.45531
           dih7        -0.00072  -0.04537  -0.00054  -0.00065   0.08026
           hn8         -0.00702  -0.00001  -0.00786  -0.00712  -0.00001
           hnc8         0.00481   0.00022   0.01476   0.00794   0.00022
           dih8        -0.00001   0.01163  -0.00002  -0.00001  -0.01163
                          hn8      hnc8      dih8
           hn8          0.46255
           hnc8         0.00196   0.15939
           dih8         0.00000   0.00000   0.02325
 Maximum step size (   0.071) exceeded in linear search.
    -- Step size scaled by   0.707
 Quartic linear search produced a step of  1.41421.
 Variable       Old X    -DE/DX   Delta X   Delta X   Delta X     New X
                                 (Linear)    (Quad)   (Total)
   nh2        1.90261  -0.00464  -0.00316   0.00000  -0.00316   1.89945
   hn3        1.90345  -0.00300  -0.00198   0.00000  -0.00198   1.90147
   hnh3       1.90765  -0.00363  -0.00423   0.00000  -0.00423   1.90342
   hn4        1.90261  -0.00467  -0.00316   0.00000  -0.00316   1.89945
   hnh4       1.90745  -0.00286  -0.00451   0.00000  -0.00451   1.90294
   dih4       2.08785  -0.00357  -0.00925   0.00000  -0.00925   2.07860
   cn5        2.73962   0.03703   0.02604   0.00000   0.02604   2.76567
   cnh5       1.91174  -0.00142   0.00156   0.00000   0.00156   1.91330
   dih5      -2.09982  -0.00252  -0.00767   0.00000  -0.00767  -2.10749
   oc6        2.31354   0.03547   0.01141   0.00000   0.01141   2.32495
   ocn6       2.08390  -0.05122  -0.01484   0.00000  -0.01484   2.06906
   dih6      -2.09502   0.00000  -0.00089   0.00000  -0.00089  -2.09591
   nc7        2.68277  -0.07778  -0.05435   0.00000  -0.05435   2.62842
   ncn7       2.07505  -0.06201  -0.02736   0.00000  -0.02736   2.04768
   dih7       1.04657   0.00000  -0.00089   0.00000  -0.00089   1.04568
   hn8        1.89952  -0.01179  -0.00753   0.00000  -0.00753   1.89199
   hnc8       1.91149   0.00254   0.00121   0.00000   0.00121   1.91270
   dih8       0.00000   0.00000   0.00000   0.00000   0.00000   0.00000
         Item               Value     Threshold  Converged?
 Maximum Force            0.077781     0.000450     NO 
 RMS     Force            0.029239     0.000300     NO 
 Maximum Displacement     0.054350     0.001800     NO 
 RMS     Displacement     0.016667     0.001200     NO 
 Predicted change in Energy=-7.547885D-03
 GradGradGradGradGradGradGradGradGradGradGradGradGradGradGradGradGradGrad

 Leave Link  103 at Fri May 25 18:41:37 2007, MaxMem=    6291456 cpu:       0.0
 (Enter /ext/software/64/g03/l202.exe)
 ------------------------------------------------------------------------
                         Z-MATRIX (ANGSTROMS AND DEGREES)
 CD Cent Atom  N1     Length/X     N2    Alpha/Y     N3     Beta/Z      J
 ------------------------------------------------------------------------
   1   1  H 
   2   2  N     1   1.005146(  1)
   3   3  H     2   1.006215(  2)   1  109.058(  8)
   4   4  H     2   1.005146(  3)   1  109.031(  9)   3  119.095( 14)   0
   5   5  C     2   1.463528(  4)   1  109.624( 10)   3 -120.750( 15)   0
   6   6  O     5   1.230309(  5)   2  118.549( 11)   4 -120.087( 16)   0
   7   7  N     5   1.390900(  6)   2  117.324( 12)   4   59.913( 17)   0
   8   8  H     7   1.001199(  7)   5  109.589( 13)   6    0.000( 18)   0
 ------------------------------------------------------------------------
                         Z-Matrix orientation:                         
 ---------------------------------------------------------------------
 Center     Atomic     Atomic              Coordinates (Angstroms)
 Number     Number      Type              X           Y           Z
 ---------------------------------------------------------------------
    1          1             0        0.000000    0.000000    0.000000
    2          7             0        0.000000    0.000000    1.005146
    3          1             0        0.951064    0.000000    1.333698
    4          1             0       -0.462050    0.830306    1.332895
    5          6             0       -0.704837   -1.184706    1.496662
    6          8             0       -0.091906   -1.981393    2.206075
    7          7             0       -2.036930   -1.334787    1.125708
    8          1             0       -2.403001   -2.177859    1.522723
 ---------------------------------------------------------------------
                    Distance matrix (angstroms):
                    1          2          3          4          5
     1  H    0.000000
     2  N    1.005146   0.000000
     3  H    1.638070   1.006215   0.000000
     4  H    1.636920   1.005146   1.638993   0.000000
     5  C    2.034778   1.463528   2.042571   2.036182   0.000000
     6  O    2.966670   2.318748   2.403070   2.967338   1.230309
     7  N    2.682901   2.438294   3.279180   2.685294   1.390900
     8  H    3.582760   3.284109   4.003567   3.585022   1.967433
                    6          7          8
     6  O    0.000000
     7  N    2.316983   0.000000
     8  H    2.418001   1.001199   0.000000
                           Interatomic angles:
       H1-N2-H3=109.0579       H1-N2-H4=109.0305       H3-N2-H4=109.1486
       H1-N2-C5=109.6238       H3-N2-C5=110.215        H4-N2-C5=109.7421
       N2-C5-O6=118.5486       N2-C5-N7=117.3236       O6-C5-N7=124.1278
       C5-N7-H8=109.5894
 Stoichiometry    CH4N2O
 Framework group  C1[X(CH4N2O)]
 Deg. of freedom    18
 Full point group                 C1      NOp   1
 Largest Abelian subgroup         C1      NOp   1
 Largest concise Abelian subgroup C1      NOp   1
                         Standard orientation:                         
 ---------------------------------------------------------------------
 Center     Atomic     Atomic              Coordinates (Angstroms)
 Number     Number      Type              X           Y           Z
 ---------------------------------------------------------------------
    1          1             0       -1.506468   -0.803629   -0.818170
    2          7             0       -1.285510   -0.263396    0.000147
    3          1             0       -1.838108    0.577496   -0.002215
    4          1             0       -1.508685   -0.802287    0.818748
    5          6             0        0.139953    0.068218    0.000059
    6          8             0        0.467756    1.254053    0.000065
    7          7             0        1.041788   -0.990696   -0.000027
    8          1             0        1.977546   -0.634667   -0.000081
 ---------------------------------------------------------------------
 Rotational constants (GHZ):     11.6797653      9.1523615      5.2760396
 Leave Link  202 at Fri May 25 18:41:37 2007, MaxMem=    6291456 cpu:       0.2
 (Enter /ext/software/64/g03/l301.exe)
 Standard basis: VSTO-3G (5D, 7F)
 There are    20 symmetry adapted basis functions of A   symmetry.
 Integral buffers will be    131072 words long.
 Raffenetti 1 integral format.
 Two-electron integral symmetry is turned on.
    20 basis functions,    60 primitive gaussians,    20 cartesian basis functions
    12 alpha electrons       12 beta electrons
       nuclear repulsion energy        68.7716567958 Hartrees.
 IExCor=   0 DFT=F Ex=HF Corr=None ExCW=0 ScaHFX=  1.000000
 ScaDFX=  1.000000  1.000000  1.000000  1.000000
 IRadAn=      0 IRanWt=     -1 IRanGd=            0 ICorTp=0
 NAtoms=    8 NActive=    8 NUniq=    8 SFac= 1.00D+00 NAtFMM=   60 Big=F
 Leave Link  301 at Fri May 25 18:41:37 2007, MaxMem=    6291456 cpu:       0.1
 (Enter /ext/software/64/g03/l401.exe)
 Initial guess read from the read-write file:
 Guess basis will be translated and rotated to current coordinates.
 Initial guess orbital symmetries:
       Occupied  (A) (A) (A) (A) (A) (A) (A) (A) (A) (A) (A) (A)
       Virtual   (A) (A) (A) (A) (A) (A) (A) (A)
 The electronic state of the initial guess is 1-A.
 Leave Link  401 at Fri May 25 18:41:38 2007, MaxMem=    6291456 cpu:       0.1
 (Enter /ext/software/64/g03/l402.exe)
 RHF-PM3 calculation of energy and first derivatives.
 MO and density RWFs will be updated without deorthogonalization.
 Closed-shell calculation:      12 occupied levels.
 NNHCO=    0.
 References:
  H: (PM3): J. J. P. STEWART, J. COMP. CHEM.     10, 209 (1989).
  C: (PM3): J. J. P. STEWART, J. COMP. CHEM.     10, 209 (1989).
  N: (PM3): J. J. P. STEWART, J. COMP. CHEM.     10, 209 (1989).
  O: (PM3): J. J. P. STEWART, J. COMP. CHEM.     10, 209 (1989).
 Ext34=T Pulay=F Camp-King=F BShift= 0.00D+00
 It=  1 PL= 0.991D+00 DiagD=T ESCF=      3.819550 Diff=-0.517D+00 RMSDP= 0.346D+00.
 It=  2 PL= 0.428D-01 DiagD=T ESCF=     -0.091092 Diff=-0.391D+01 RMSDP= 0.757D-02.
 It=  3 PL= 0.238D-01 DiagD=F ESCF=     -0.262453 Diff=-0.171D+00 RMSDP= 0.475D-02.
 It=  4 PL= 0.674D-02 DiagD=F ESCF=     -0.308596 Diff=-0.461D-01 RMSDP= 0.821D-03.
 It=  5 PL= 0.324D-02 DiagD=F ESCF=     -0.293008 Diff= 0.156D-01 RMSDP= 0.470D-03.
 It=  6 PL= 0.187D-02 DiagD=F ESCF=     -0.293525 Diff=-0.518D-03 RMSDP= 0.779D-03.
 It=  7 PL= 0.166D-03 DiagD=F ESCF=     -0.294400 Diff=-0.875D-03 RMSDP= 0.357D-04.
 It=  8 PL= 0.998D-04 DiagD=F ESCF=     -0.293868 Diff= 0.532D-03 RMSDP= 0.174D-04.
 It=  9 PL= 0.558D-04 DiagD=F ESCF=     -0.293869 Diff=-0.788D-06 RMSDP= 0.238D-04.
 It= 10 PL= 0.123D-04 DiagD=F ESCF=     -0.293870 Diff=-0.895D-06 RMSDP= 0.210D-05.
 It= 11 PL= 0.821D-05 DiagD=F ESCF=     -0.293870 Diff= 0.498D-06 RMSDP= 0.113D-05.
 It= 12 PL= 0.481D-05 DiagD=F ESCF=     -0.293870 Diff=-0.307D-08 RMSDP= 0.170D-05.
 It= 13 PL= 0.676D-06 DiagD=F ESCF=     -0.293870 Diff=-0.424D-08 RMSDP= 0.117D-06.
 It= 14 PL= 0.366D-06 DiagD=F ESCF=     -0.293870 Diff= 0.248D-08 RMSDP= 0.628D-07.
 Energy=   -0.010799722761 NIter=  15.
 Dipole moment=      -2.940547      -0.416190      -0.000045
 Leave Link  402 at Fri May 25 18:41:38 2007, MaxMem=    6291456 cpu:       0.0
 (Enter /ext/software/64/g03/l716.exe)
 Dipole        =-2.94054714D+00-4.16190392D-01-4.54620031D-05
 ***** Axes restored to original set *****
 -------------------------------------------------------------------
 Center     Atomic                   Forces (Hartrees/Bohr)
 Number     Number              X              Y              Z
 -------------------------------------------------------------------
    1          1           0.000893699    0.001866369    0.002823627
    2          7           0.011374517    0.022871664   -0.010557401
    3          1          -0.001462937    0.002385290   -0.001827880
    4          1           0.002643934   -0.001289735   -0.001943046
    5          6          -0.101151252   -0.042004075   -0.009008353
    6          8           0.029198692   -0.005788180    0.013779054
    7          7           0.057763350    0.014277624    0.011260550
    8          1           0.000739998    0.007681044   -0.004526550
 -------------------------------------------------------------------
 Cartesian Forces:  Max     0.101151252 RMS     0.027157024
 ------------------------------------------------------------------------
           Internal Coordinate Forces (Hartree/Bohr or radian)
 Cent Atom N1     Length/X     N2     Alpha/Y      N3      Beta/Z       J
 ------------------------------------------------------------------------
   1  H 
   2  N     1  -0.002824(   1)
   3  H     2  -0.001980(   2)  1  -0.002377(   8)
   4  H     2  -0.002914(   3)  1  -0.001984(   9)  3  -0.003028(  14)  0
   5  C     2   0.031253(   4)  1  -0.000473(  10)  3  -0.001258(  15)  0
   6  O     5   0.026240(   5)  2  -0.045761(  11)  4  -0.000009(  16)  0
   7  N     5  -0.060195(   6)  2  -0.052591(  12)  4  -0.000003(  17)  0
   8  H     7  -0.008533(   7)  5   0.005082(  13)  6  -0.000007(  18)  0
 ------------------------------------------------------------------------
 Internal  Forces:  Max     0.060195185 RMS     0.023907488
 Leave Link  716 at Fri May 25 18:41:38 2007, MaxMem=    6291456 cpu:       0.0
 (Enter /ext/software/64/g03/l103.exe)

 GradGradGradGradGradGradGradGradGradGradGradGradGradGradGradGradGradGrad
 Berny optimization.
 Search for a local minimum.
 Step number   3 out of a maximum of  28
 All quantities printed in internal units (Hartrees-Bohrs-Radians)
 Update second derivatives using D2CorN and points  2  3
 The second derivative matrix:
                          nh2       hn3      hnh3       hn4      hnh4
           nh2          0.46358
           hn3          0.00025   0.46321
           hnh3         0.00054   0.00026   0.26212
           hn4          0.00046   0.00023   0.00051   0.46353
           hnh4         0.00052   0.00024   0.06170   0.00049   0.28167
           dih4         0.00089   0.00038  -0.07473   0.00081  -0.02073
           cn5         -0.00077   0.00000  -0.00009  -0.00056   0.00034
           cnh5         0.00000   0.00003   0.05472   0.00001   0.06129
           dih5         0.00110   0.00055   0.06595   0.00104  -0.05292
           oc6         -0.00045  -0.00007  -0.00019  -0.00036  -0.00002
           ocn6        -0.00258  -0.00189  -0.00399  -0.00270  -0.00449
           dih6         0.00011   0.00005  -0.01057   0.00010  -0.02126
           nc7          0.00324   0.00103   0.00237   0.00281   0.00163
           ncn7        -0.00093  -0.00108  -0.00223  -0.00114  -0.00283
           dih7         0.00011   0.00005  -0.01057   0.00010  -0.02126
           hn8          0.00066   0.00028   0.00062   0.00060   0.00053
           hnc8         0.00114   0.00073   0.00157   0.00115   0.00169
           dih8         0.00000   0.00000   0.00000   0.00000   0.00000
                         dih4       cn5      cnh5      dih5       oc6
           dih4         0.22754
           cn5          0.00225   0.37530
           cnh5         0.05433  -0.00158   0.25264
           dih5        -0.11137  -0.00118   0.00359   0.22328
           oc6          0.00065  -0.00805  -0.00064  -0.00080   0.95073
           ocn6        -0.01012   0.03658   0.00239  -0.00666   0.01548
           dih6         0.01178   0.00005  -0.01066  -0.00558  -0.00001
           nc7          0.00008   0.02941   0.00250   0.00642   0.01089
           ncn7        -0.00745   0.03590   0.00252  -0.00298   0.01473
           dih7         0.01179   0.00003  -0.01067  -0.00558  -0.00002
           hn8          0.00064   0.00230   0.00024   0.00141   0.00073
           hnc8         0.00354  -0.01064  -0.00065   0.00280  -0.00462
           dih8        -0.00001   0.00002   0.00000   0.00000   0.00001
                         ocn6      dih6       nc7      ncn7      dih7
           ocn6         0.46499
           dih6        -0.00087   0.08028
           nc7         -0.06866   0.00036   0.36261
           ncn7         0.20341  -0.00054  -0.06076   0.44724
           dih7        -0.00087  -0.04536   0.00039  -0.00052   0.08028
           hn8         -0.00850   0.00011  -0.00091  -0.00656   0.00011
           hnc8         0.00721   0.00033   0.02157   0.01184   0.00033
           dih8        -0.00001   0.01163  -0.00003  -0.00002  -0.01163
                          hn8      hnc8      dih8
           hn8          0.46348
           hnc8         0.00291   0.15906
           dih8         0.00000   0.00000   0.02325
 Maximum step size (   0.071) exceeded in linear search.
    -- Step size scaled by   0.500
 Quartic linear search produced a step of  1.00000.
 Variable       Old X    -DE/DX   Delta X   Delta X   Delta X     New X
                                 (Linear)    (Quad)   (Total)
   nh2        1.89945  -0.00282  -0.00316   0.00000  -0.00316   1.89629
   hn3        1.90147  -0.00198  -0.00198   0.00000  -0.00198   1.89950
   hnh3       1.90342  -0.00238  -0.00423   0.00000  -0.00423   1.89919
   hn4        1.89945  -0.00291  -0.00316   0.00000  -0.00316   1.89629
   hnh4       1.90294  -0.00198  -0.00451   0.00000  -0.00451   1.89844
   dih4       2.07860  -0.00303  -0.00925   0.00000  -0.00925   2.06935
   cn5        2.76567   0.03125   0.02604   0.00000   0.02604   2.79171
   cnh5       1.91330  -0.00047   0.00156   0.00000   0.00156   1.91486
   dih5      -2.10749  -0.00126  -0.00767   0.00000  -0.00767  -2.11516
   oc6        2.32495   0.02624   0.01141   0.00000   0.01141   2.33636
   ocn6       2.06906  -0.04576  -0.01484   0.00000  -0.01484   2.05422
   dih6      -2.09591  -0.00001  -0.00089   0.00000  -0.00089  -2.09680
   nc7        2.62842  -0.06020  -0.05435   0.00000  -0.05435   2.57407
   ncn7       2.04768  -0.05259  -0.02736   0.00000  -0.02736   2.02032
   dih7       1.04568   0.00000  -0.00089   0.00000  -0.00089   1.04479
   hn8        1.89199  -0.00853  -0.00753   0.00000  -0.00753   1.88446
   hnc8       1.91270   0.00508   0.00121   0.00000   0.00121   1.91390
   dih8       0.00000  -0.00001   0.00000   0.00000   0.00000   0.00000
         Item               Value     Threshold  Converged?
 Maximum Force            0.060195     0.000450     NO 
 RMS     Force            0.023907     0.000300     NO 
 Maximum Displacement     0.054350     0.001800     NO 
 RMS     Displacement     0.016667     0.001200     NO 
 Predicted change in Energy=-5.847732D-03
 GradGradGradGradGradGradGradGradGradGradGradGradGradGradGradGradGradGrad

 Leave Link  103 at Fri May 25 18:41:38 2007, MaxMem=    6291456 cpu:       0.0
 (Enter /ext/software/64/g03/l202.exe)
 ------------------------------------------------------------------------
                         Z-MATRIX (ANGSTROMS AND DEGREES)
 CD Cent Atom  N1     Length/X     N2    Alpha/Y     N3     Beta/Z      J
 ------------------------------------------------------------------------
   1   1  H 
   2   2  N     1   1.003473(  1)
   3   3  H     2   1.005170(  2)   1  108.816(  8)
   4   4  H     2   1.003473(  3)   1  108.772(  9)   3  118.565( 14)   0
   5   5  C     2   1.477310(  4)   1  109.713( 10)   3 -121.190( 15)   0
   6   6  O     5   1.236348(  5)   2  117.698( 11)   4 -120.138( 16)   0
   7   7  N     5   1.362139(  6)   2  115.756( 12)   4   59.862( 17)   0
   8   8  H     7   0.997215(  7)   5  109.659( 13)   6    0.000( 18)   0
 ------------------------------------------------------------------------
                         Z-Matrix orientation:                         
 ---------------------------------------------------------------------
 Center     Atomic     Atomic              Coordinates (Angstroms)
 Number     Number      Type              X           Y           Z
 ---------------------------------------------------------------------
    1          1             0        0.000000    0.000000    0.000000
    2          7             0        0.000000    0.000000    1.003473
    3          1             0        0.951454    0.000000    1.327667
    4          1             0       -0.454294    0.834443    1.326400
    5          6             0       -0.720227   -1.189706    1.501789
    6          8             0       -0.095432   -1.982538    2.215655
    7          7             0       -2.023001   -1.296497    1.118647
    8          1             0       -2.418855   -2.126964    1.503434
 ---------------------------------------------------------------------
                    Distance matrix (angstroms):
                    1          2          3          4          5
     1  H    0.000000
     2  N    1.003473   0.000000
     3  H    1.633390   1.005170   0.000000
     4  H    1.631568   1.003473   1.634755   0.000000
     5  C    2.046826   1.477310   2.059183   2.049063   0.000000
     6  O    2.974676   2.325715   2.411421   2.975725   1.236348
     7  N    2.650436   2.405557   3.251458   2.654225   1.362139
     8  H    3.554596   3.259570   3.989217   3.558198   1.940050
                    6          7          8
     6  O    0.000000
     7  N    2.321551   0.000000
     8  H    2.434422   0.997215   0.000000
                           Interatomic angles:
       H1-N2-H3=108.8158       H1-N2-H4=108.7724       H3-N2-H4=108.9496
       H1-N2-C5=109.7132       H3-N2-C5=110.6514       H4-N2-C5=109.9014
       N2-C5-O6=117.6984       N2-C5-N7=115.7558       O6-C5-N7=126.5458
       C5-N7-H8=109.6586
 Stoichiometry    CH4N2O
 Framework group  C1[X(CH4N2O)]
 Deg. of freedom    18
 Full point group                 C1      NOp   1
 Largest Abelian subgroup         C1      NOp   1
 Largest concise Abelian subgroup C1      NOp   1
                         Standard orientation:                         
 ---------------------------------------------------------------------
 Center     Atomic     Atomic              Coordinates (Angstroms)
 Number     Number      Type              X           Y           Z
 ---------------------------------------------------------------------
    1          1             0       -1.520339   -0.769709   -0.815333
    2          7             0       -1.285079   -0.234478    0.000228
    3          1             0       -1.822332    0.615059   -0.003432
    4          1             0       -1.523806   -0.767496    0.816230
    5          6             0        0.161755    0.064041    0.000089
    6          8             0        0.503377    1.252255    0.000098
    7          7             0        0.989346   -1.017863   -0.000037
    8          1             0        1.939062   -0.713761   -0.000124
 ---------------------------------------------------------------------
 Rotational constants (GHZ):     11.5404041      9.3232929      5.3021785
 Leave Link  202 at Fri May 25 18:41:38 2007, MaxMem=    6291456 cpu:       0.2
 (Enter /ext/software/64/g03/l301.exe)
 Standard basis: VSTO-3G (5D, 7F)
 There are    20 symmetry adapted basis functions of A   symmetry.
 Integral buffers will be    131072 words long.
 Raffenetti 1 integral format.
 Two-electron integral symmetry is turned on.
    20 basis functions,    60 primitive gaussians,    20 cartesian basis functions
    12 alpha electrons       12 beta electrons
       nuclear repulsion energy        68.8933213284 Hartrees.
 IExCor=   0 DFT=F Ex=HF Corr=None ExCW=0 ScaHFX=  1.000000
 ScaDFX=  1.000000  1.000000  1.000000  1.000000
 IRadAn=      0 IRanWt=     -1 IRanGd=            0 ICorTp=0
 NAtoms=    8 NActive=    8 NUniq=    8 SFac= 1.00D+00 NAtFMM=   60 Big=F
 Leave Link  301 at Fri May 25 18:41:39 2007, MaxMem=    6291456 cpu:       0.1
 (Enter /ext/software/64/g03/l401.exe)
 Initial guess read from the read-write file:
 Guess basis will be translated and rotated to current coordinates.
 Initial guess orbital symmetries:
       Occupied  (A) (A) (A) (A) (A) (A) (A) (A) (A) (A) (A) (A)
       Virtual   (A) (A) (A) (A) (A) (A) (A) (A)
 The electronic state of the initial guess is 1-A.
 Leave Link  401 at Fri May 25 18:41:39 2007, MaxMem=    6291456 cpu:       0.1
 (Enter /ext/software/64/g03/l402.exe)
 RHF-PM3 calculation of energy and first derivatives.
 MO and density RWFs will be updated without deorthogonalization.
 Closed-shell calculation:      12 occupied levels.
 NNHCO=    0.
 References:
  H: (PM3): J. J. P. STEWART, J. COMP. CHEM.     10, 209 (1989).
  C: (PM3): J. J. P. STEWART, J. COMP. CHEM.     10, 209 (1989).
  N: (PM3): J. J. P. STEWART, J. COMP. CHEM.     10, 209 (1989).
  O: (PM3): J. J. P. STEWART, J. COMP. CHEM.     10, 209 (1989).
 Ext34=T Pulay=F Camp-King=F BShift= 0.00D+00
 It=  1 PL= 0.992D+00 DiagD=T ESCF=      3.685841 Diff=-0.650D+00 RMSDP= 0.346D+00.
 It=  2 PL= 0.426D-01 DiagD=T ESCF=     -0.244633 Diff=-0.393D+01 RMSDP= 0.762D-02.
 It=  3 PL= 0.238D-01 DiagD=F ESCF=     -0.418389 Diff=-0.174D+00 RMSDP= 0.479D-02.
 It=  4 PL= 0.655D-02 DiagD=F ESCF=     -0.465592 Diff=-0.472D-01 RMSDP= 0.797D-03.
 It=  5 PL= 0.307D-02 DiagD=F ESCF=     -0.449487 Diff= 0.161D-01 RMSDP= 0.447D-03.
 It=  6 PL= 0.174D-02 DiagD=F ESCF=     -0.449969 Diff=-0.482D-03 RMSDP= 0.713D-03.
 It=  7 PL= 0.159D-03 DiagD=F ESCF=     -0.450732 Diff=-0.762D-03 RMSDP= 0.340D-04.
 It=  8 PL= 0.946D-04 DiagD=F ESCF=     -0.450275 Diff= 0.457D-03 RMSDP= 0.160D-04.
 It=  9 PL= 0.527D-04 DiagD=F ESCF=     -0.450276 Diff=-0.717D-06 RMSDP= 0.217D-04.
 It= 10 PL= 0.106D-04 DiagD=F ESCF=     -0.450277 Diff=-0.811D-06 RMSDP= 0.191D-05.
 It= 11 PL= 0.681D-05 DiagD=F ESCF=     -0.450276 Diff= 0.452D-06 RMSDP= 0.995D-06.
 It= 12 PL= 0.393D-05 DiagD=F ESCF=     -0.450276 Diff=-0.249D-08 RMSDP= 0.144D-05.
 It= 13 PL= 0.600D-06 DiagD=F ESCF=     -0.450276 Diff=-0.326D-08 RMSDP= 0.104D-06.
 It= 14 PL= 0.312D-06 DiagD=F ESCF=     -0.450276 Diff= 0.188D-08 RMSDP= 0.536D-07.
 Energy=   -0.016547665439 NIter=  15.
 Dipole moment=      -2.856053      -0.415898      -0.000113
 Leave Link  402 at Fri May 25 18:41:39 2007, MaxMem=    6291456 cpu:       0.0
 (Enter /ext/software/64/g03/l716.exe)
 Dipole        =-2.85605344D+00-4.15898390D-01-1.12940969D-04
 ***** Axes restored to original set *****
 -------------------------------------------------------------------
 Center     Atomic                   Forces (Hartrees/Bohr)
 Number     Number              X              Y              Z
 -------------------------------------------------------------------
    1          1           0.000853566    0.001413862    0.000948157
    2          7           0.010424317    0.018920482   -0.008723990
    3          1          -0.000638070    0.001446378   -0.000883174
    4          1           0.001632543   -0.000060212   -0.000925436
    5          6          -0.072128223   -0.035198929   -0.002641996
    6          8           0.022887678   -0.001149600    0.008629368
    7          7           0.038616240    0.009488630    0.007402121
    8          1          -0.001648052    0.005139388   -0.003805051
 -------------------------------------------------------------------
 Cartesian Forces:  Max     0.072128223 RMS     0.019664791
 ------------------------------------------------------------------------
           Internal Coordinate Forces (Hartree/Bohr or radian)
 Cent Atom N1     Length/X     N2     Alpha/Y      N3      Beta/Z       J
 ------------------------------------------------------------------------
   1  H 
   2  N     1  -0.000948(   1)
   3  H     2  -0.000889(   2)  1  -0.001197(   8)
   4  H     2  -0.001087(   3)  1  -0.001133(   9)  3  -0.002534(  14)  0
   5  C     2   0.026708(   4)  1   0.000439(  10)  3  -0.000067(  15)  0
   6  O     5   0.017286(   5)  2  -0.040522(  11)  4  -0.000016(  16)  0
   7  N     5  -0.037516(   6)  2  -0.043038(  12)  4  -0.000006(  17)  0
   8  H     7  -0.005094(   7)  5   0.007919(  13)  6  -0.000011(  18)  0
 ------------------------------------------------------------------------
 Internal  Forces:  Max     0.043037801 RMS     0.018279806
 Leave Link  716 at Fri May 25 18:41:39 2007, MaxMem=    6291456 cpu:       0.0
 (Enter /ext/software/64/g03/l103.exe)

 GradGradGradGradGradGradGradGradGradGradGradGradGradGradGradGradGradGrad
 Berny optimization.
 Search for a local minimum.
 Step number   4 out of a maximum of  28
 All quantities printed in internal units (Hartrees-Bohrs-Radians)
 Update second derivatives using D2CorN and points  3  4
 The second derivative matrix:
                          nh2       hn3      hnh3       hn4      hnh4
           nh2          0.46373
           hn3          0.00035   0.46327
           hnh3         0.00066   0.00034   0.26218
           hn4          0.00062   0.00033   0.00063   0.46368
           hnh4         0.00067   0.00034   0.06178   0.00063   0.28177
           dih4         0.00115   0.00056  -0.07462   0.00107  -0.02057
           cn5         -0.00079  -0.00004   0.00058  -0.00056   0.00094
           cnh5        -0.00004   0.00000   0.05471  -0.00003   0.06127
           dih5         0.00137   0.00073   0.06611   0.00131  -0.05272
           oc6         -0.00059  -0.00017  -0.00007  -0.00049   0.00006
           ocn6        -0.00287  -0.00205  -0.00477  -0.00300  -0.00527
           dih6         0.00014   0.00007  -0.01055   0.00013  -0.02124
           nc7          0.00663   0.00320   0.00546   0.00615   0.00515
           ncn7        -0.00060  -0.00085  -0.00252  -0.00084  -0.00303
           dih7         0.00014   0.00007  -0.01055   0.00013  -0.02123
           hn8          0.00096   0.00047   0.00081   0.00089   0.00077
           hnc8         0.00142   0.00091   0.00198   0.00143   0.00213
           dih8         0.00000   0.00000   0.00000   0.00000   0.00000
                         dih4       cn5      cnh5      dih5       oc6
           dih4         0.22777
           cn5          0.00375   0.36503
           cnh5         0.05431  -0.00188   0.25264
           dih5        -0.11103  -0.00034   0.00355   0.22368
           oc6          0.00092  -0.01148  -0.00070  -0.00075   0.94969
           ocn6        -0.01186   0.04494   0.00271  -0.00787   0.01854
           dih6         0.01182   0.00015  -0.01067  -0.00554   0.00000
           nc7          0.00677   0.02323   0.00147   0.01282   0.00595
           ncn7        -0.00813   0.04418   0.00268  -0.00312   0.01723
           dih7         0.01183   0.00013  -0.01067  -0.00553  -0.00001
           hn8          0.00106   0.00287   0.00018   0.00188   0.00067
           hnc8         0.00445  -0.01347  -0.00081   0.00353  -0.00581
           dih8        -0.00001   0.00002   0.00000  -0.00001   0.00001
                         ocn6      dih6       nc7      ncn7      dih7
           ocn6         0.45880
           dih6        -0.00102   0.08028
           nc7         -0.07037   0.00109   0.43317
           ncn7         0.19606  -0.00056  -0.04901   0.44119
           dih7        -0.00101  -0.04535   0.00113  -0.00054   0.08028
           hn8         -0.00955   0.00016   0.00588  -0.00643   0.00017
           hnc8         0.00894   0.00042   0.02619   0.01469   0.00042
           dih8        -0.00001   0.01163  -0.00004  -0.00002  -0.01163
                          hn8      hnc8      dih8
           hn8          0.46400
           hnc8         0.00361   0.15882
           dih8        -0.00001   0.00000   0.02325
 Maximum step size (   0.071) exceeded in linear search.
    -- Step size scaled by   0.500
 Quartic linear search produced a step of  1.00000.
 Variable       Old X    -DE/DX   Delta X   Delta X   Delta X     New X
                                 (Linear)    (Quad)   (Total)
   nh2        1.89629  -0.00095  -0.00316   0.00000  -0.00316   1.89313
   hn3        1.89950  -0.00089  -0.00198   0.00000  -0.00198   1.89752
   hnh3       1.89919  -0.00120  -0.00423   0.00000  -0.00423   1.89497
   hn4        1.89629  -0.00109  -0.00316   0.00000  -0.00316   1.89313
   hnh4       1.89844  -0.00113  -0.00451   0.00000  -0.00451   1.89393
   dih4       2.06935  -0.00253  -0.00925   0.00000  -0.00925   2.06010
   cn5        2.79171   0.02671   0.02604   0.00000   0.02604   2.81776
   cnh5       1.91486   0.00044   0.00156   0.00000   0.00156   1.91642
   dih5      -2.11516  -0.00007  -0.00767   0.00000  -0.00767  -2.12284
   oc6        2.33636   0.01729   0.01141   0.00000   0.01141   2.34777
   ocn6       2.05422  -0.04052  -0.01484   0.00000  -0.01484   2.03939
   dih6      -2.09680  -0.00002  -0.00089   0.00000  -0.00089  -2.09769
   nc7        2.57407  -0.03752  -0.05435   0.00000  -0.05435   2.51972
   ncn7       2.02032  -0.04304  -0.02736   0.00000  -0.02736   1.99296
   dih7       1.04479  -0.00001  -0.00089   0.00000  -0.00089   1.04390
   hn8        1.88446  -0.00509  -0.00753   0.00000  -0.00753   1.87693
   hnc8       1.91390   0.00792   0.00121   0.00000   0.00121   1.91511
   dih8       0.00000  -0.00001   0.00000   0.00000   0.00000   0.00000
         Item               Value     Threshold  Converged?
 Maximum Force            0.043038     0.000450     NO 
 RMS     Force            0.018280     0.000300     NO 
 Maximum Displacement     0.054350     0.001800     NO 
 RMS     Displacement     0.016667     0.001200     NO 
 Predicted change in Energy=-3.876837D-03
 GradGradGradGradGradGradGradGradGradGradGradGradGradGradGradGradGradGrad

 Leave Link  103 at Fri May 25 18:41:40 2007, MaxMem=    6291456 cpu:       0.0
 (Enter /ext/software/64/g03/l202.exe)
 ------------------------------------------------------------------------
                         Z-MATRIX (ANGSTROMS AND DEGREES)
 CD Cent Atom  N1     Length/X     N2    Alpha/Y     N3     Beta/Z      J
 ------------------------------------------------------------------------
   1   1  H 
   2   2  N     1   1.001801(  1)
   3   3  H     2   1.004124(  2)   1  108.574(  8)
   4   4  H     2   1.001801(  3)   1  108.514(  9)   3  118.035( 14)   0
   5   5  C     2   1.491092(  4)   1  109.803( 10)   3 -121.630( 15)   0
   6   6  O     5   1.242387(  5)   2  116.848( 11)   4 -120.189( 16)   0
   7   7  N     5   1.333379(  6)   2  114.188( 12)   4   59.811( 17)   0
   8   8  H     7   0.993231(  7)   5  109.728( 13)   6    0.000( 18)   0
[...]
 IRadAn=      0 IRanWt=     -1 IRanGd=            0 ICorTp=0
 NAtoms=    8 NActive=    8 NUniq=    8 SFac= 1.00D+00 NAtFMM=   60 Big=F
 Leave Link  301 at Fri May 25 18:41:52 2007, MaxMem=    6291456 cpu:       0.0
 (Enter /ext/software/64/g03/l401.exe)
 Initial guess read from the read-write file:
 Guess basis will be translated and rotated to current coordinates.
 Initial guess orbital symmetries:
       Occupied  (A) (A) (A) (A) (A) (A) (A) (A) (A) (A) (A) (A)
       Virtual   (A) (A) (A) (A) (A) (A) (A) (A)
 The electronic state of the initial guess is 1-A.
 Leave Link  401 at Fri May 25 18:41:52 2007, MaxMem=    6291456 cpu:       0.0
 (Enter /ext/software/64/g03/l402.exe)
 RHF-PM3 calculation of energy and first derivatives.
 MO and density RWFs will be updated without deorthogonalization.
 Closed-shell calculation:      12 occupied levels.
 NNHCO=    0.
 References:
  H: (PM3): J. J. P. STEWART, J. COMP. CHEM.     10, 209 (1989).
  C: (PM3): J. J. P. STEWART, J. COMP. CHEM.     10, 209 (1989).
  N: (PM3): J. J. P. STEWART, J. COMP. CHEM.     10, 209 (1989).
  O: (PM3): J. J. P. STEWART, J. COMP. CHEM.     10, 209 (1989).
 Ext34=T Pulay=F Camp-King=F BShift= 0.00D+00
 It=  1 PL= 0.991D+00 DiagD=T ESCF=      3.370604 Diff=-0.966D+00 RMSDP= 0.346D+00.
 It=  2 PL= 0.462D-01 DiagD=T ESCF=     -0.509347 Diff=-0.388D+01 RMSDP= 0.786D-02.
 It=  3 PL= 0.237D-01 DiagD=F ESCF=     -0.691852 Diff=-0.183D+00 RMSDP= 0.504D-02.
 It=  4 PL= 0.599D-02 DiagD=F ESCF=     -0.744113 Diff=-0.523D-01 RMSDP= 0.765D-03.
 It=  5 PL= 0.265D-02 DiagD=F ESCF=     -0.725894 Diff= 0.182D-01 RMSDP= 0.409D-03.
 It=  6 PL= 0.154D-02 DiagD=F ESCF=     -0.726323 Diff=-0.429D-03 RMSDP= 0.602D-03.
 It=  7 PL= 0.114D-03 DiagD=F ESCF=     -0.726906 Diff=-0.582D-03 RMSDP= 0.271D-04.
 It=  8 PL= 0.606D-04 DiagD=F ESCF=     -0.726565 Diff= 0.341D-03 RMSDP= 0.126D-04.
 It=  9 PL= 0.326D-04 DiagD=F ESCF=     -0.726565 Diff=-0.445D-06 RMSDP= 0.163D-04.
 It= 10 PL= 0.697D-05 DiagD=F ESCF=     -0.726566 Diff=-0.453D-06 RMSDP= 0.132D-05.
 It= 11 PL= 0.407D-05 DiagD=F ESCF=     -0.726566 Diff= 0.248D-06 RMSDP= 0.670D-06.
 It= 12 PL= 0.271D-05 DiagD=F ESCF=     -0.726566 Diff=-0.112D-08 RMSDP= 0.923D-06.
 It= 13 PL= 0.344D-06 DiagD=F ESCF=     -0.726566 Diff=-0.130D-08 RMSDP= 0.661D-07.
 Energy=   -0.026701316542 NIter=  14.
 Dipole moment=       2.238212      -0.554417       0.000121
 Leave Link  402 at Fri May 25 18:41:52 2007, MaxMem=    6291456 cpu:       0.0
 (Enter /ext/software/64/g03/l716.exe)
 Dipole        = 2.23821214D+00-5.54417314D-01 1.21399003D-04
 ***** Axes restored to original set *****
 -------------------------------------------------------------------
 Center     Atomic                   Forces (Hartrees/Bohr)
 Number     Number              X              Y              Z
 -------------------------------------------------------------------
    1          1          -0.000001236    0.000029405    0.000028130
    2          7           0.000021397   -0.000088459   -0.000079181
    3          1          -0.000008315    0.000061702   -0.000002380
    4          1           0.000007859    0.000019986    0.000015176
    5          6          -0.000226875   -0.000014493   -0.000038694
    6          8          -0.000076299    0.000018849   -0.000031497
    7          7           0.000283279   -0.000039563    0.000131561
    8          1           0.000000190    0.000012574   -0.000023115
 -------------------------------------------------------------------
 Cartesian Forces:  Max     0.000283279 RMS     0.000086829
 ------------------------------------------------------------------------
           Internal Coordinate Forces (Hartree/Bohr or radian)
 Cent Atom N1     Length/X     N2     Alpha/Y      N3      Beta/Z       J
 ------------------------------------------------------------------------
   1  H 
   2  N     1  -0.000028(   1)
   3  H     2  -0.000009(   2)  1   0.000001(   8)
   4  H     2   0.000018(   3)  1   0.000017(   9)  3  -0.000028(  14)  0
   5  C     2   0.000041(   4)  1   0.000016(  10)  3  -0.000083(  15)  0
   6  O     5  -0.000075(   5)  2   0.000092(  11)  4  -0.000026(  16)  0
   7  N     5  -0.000304(   6)  2  -0.000001(  12)  4   0.000028(  17)  0
   8  H     7  -0.000016(   7)  5   0.000031(  13)  6  -0.000021(  18)  0
 ------------------------------------------------------------------------
 Internal  Forces:  Max     0.000304457 RMS     0.000081998
 Leave Link  716 at Fri May 25 18:41:52 2007, MaxMem=    6291456 cpu:       0.0
 (Enter /ext/software/64/g03/l103.exe)

 GradGradGradGradGradGradGradGradGradGradGradGradGradGradGradGradGradGrad
 Berny optimization.
 Search for a local minimum.
 Step number  16 out of a maximum of  28
 All quantities printed in internal units (Hartrees-Bohrs-Radians)
 Update second derivatives using D2CorN and points  1  2  3  4  5
                                                        6  7  8  9 10

                                                       12 11 14 13 15

                                                       16
 Trust test= 8.59D-01 RLast= 6.68D-03 DXMaxT set to 5.00D-02
 The second derivative matrix:
                          nh2       hn3      hnh3       hn4      hnh4
           nh2          0.46387
           hn3          0.00008   0.46285
           hnh3         0.00366   0.00322   0.26200
           hn4          0.00150   0.00094   0.00336   0.46519
           hnh4         0.00550   0.00523   0.06063   0.00561   0.27882
           dih4         0.00651   0.00714  -0.07053   0.01112  -0.01609
           cn5          0.00572   0.00613  -0.01197   0.00778  -0.01862
           cnh5        -0.00402  -0.00439   0.05509  -0.00378   0.06457
           dih5         0.00347   0.00364   0.07084   0.00841  -0.04541
           oc6          0.00020  -0.00080   0.00578  -0.00080   0.00660
           ocn6         0.00401   0.00562  -0.01133   0.00096  -0.01933
           dih6        -0.00172  -0.00288  -0.00892  -0.00211  -0.02088
           nc7          0.00258  -0.00315   0.00310  -0.00140   0.00396
           ncn7         0.00358   0.00355  -0.00461   0.00265  -0.00779
           dih7        -0.00169  -0.00204  -0.01086  -0.00099  -0.01771
           hn8          0.00147   0.00083  -0.00053   0.00121  -0.00125
           hnc8        -0.00364  -0.00629   0.00219  -0.00373   0.00811
           dih8         0.00131  -0.00121   0.00357   0.00228   0.00554
                         dih4       cn5      cnh5      dih5       oc6
           dih4         0.24406
           cn5         -0.02127   0.17224
           cnh5         0.04957   0.01753   0.25161
           dih5        -0.10082  -0.01126  -0.00249   0.22802
           oc6          0.00731   0.09595   0.00070   0.00837   0.88985
           ocn6        -0.01609   0.10438   0.01855  -0.00005  -0.02287
           dih6         0.00221   0.01041  -0.01597  -0.00915  -0.00481
           nc7         -0.01120   0.03011  -0.00811  -0.00024   0.08130
           ncn7        -0.00960   0.12457   0.00976   0.00157  -0.00847
           dih7         0.00858   0.00773  -0.00548  -0.01239  -0.00380
           hn8         -0.00293  -0.00283   0.00101  -0.00079   0.01241
           hnc8        -0.00434   0.03604   0.00065  -0.00381   0.01388
           dih8        -0.00598  -0.00029  -0.00187   0.00598   0.00131
                         ocn6      dih6       nc7      ncn7      dih7
           ocn6         0.37083
           dih6         0.00670   0.19208
           nc7         -0.04669  -0.01501   0.61176
           ncn7         0.13014   0.00189  -0.02257   0.38603
           dih7         0.00285  -0.16059   0.00074  -0.00304   0.19156
           hn8         -0.01092   0.00012   0.01067  -0.00786  -0.00004
           hnc8         0.03600  -0.00069   0.03361   0.03482  -0.00168
           dih8         0.00102   0.04996  -0.00516   0.00274  -0.06190
                          hn8      hnc8      dih8
           hn8          0.46271
           hnc8         0.00810   0.18815
           dih8        -0.00054   0.00358   0.03840
     Eigenvalues ---    0.01431   0.02875   0.07169   0.12051   0.14616
     Eigenvalues ---    0.17470   0.22973   0.24966   0.36304   0.37884
     Eigenvalues ---    0.41470   0.46042   0.46268   0.46316   0.46846
     Eigenvalues ---    0.56037   0.62517   0.92769
 RFO step:  Lambda=-2.23714157D-07.
 Quartic linear search produced a step of -0.12388.
 Variable       Old X    -DE/DX   Delta X   Delta X   Delta X     New X
                                 (Linear)    (Quad)   (Total)
   nh2        1.89493  -0.00003   0.00002  -0.00007  -0.00005   1.89488
   hn3        1.89841  -0.00001   0.00002  -0.00004  -0.00002   1.89839
   hnh3       1.89094   0.00000  -0.00001   0.00009   0.00007   1.89101
   hn4        1.89483   0.00002   0.00001   0.00004   0.00005   1.89488
   hnh4       1.89117   0.00002  -0.00005  -0.00005  -0.00010   1.89107
   dih4       2.04894  -0.00003   0.00008  -0.00038  -0.00030   2.04864
   cn5        3.05228   0.00004   0.00009   0.00030   0.00039   3.05267
   cnh5       1.92571   0.00002   0.00000   0.00003   0.00003   1.92574
   dih5      -2.12119  -0.00008   0.00007  -0.00060  -0.00052  -2.12171
   oc6        2.33124  -0.00007  -0.00003  -0.00005  -0.00007   2.33116
   ocn6       1.92166   0.00009  -0.00015   0.00026   0.00011   1.92177
   dih6      -2.11655  -0.00003  -0.00005  -0.00045  -0.00050  -2.11706
   nc7        2.47482  -0.00030  -0.00013  -0.00039  -0.00052   2.47430
   ncn7       1.87431   0.00000  -0.00011  -0.00012  -0.00022   1.87409
   dih7       1.02526   0.00003  -0.00033  -0.00031  -0.00063   1.02463
   hn8        1.87015  -0.00002  -0.00001  -0.00002  -0.00003   1.87012
   hnc8       1.99211   0.00003   0.00009   0.00011   0.00020   1.99231
   dih8       0.00052  -0.00002  -0.00070  -0.00025  -0.00095  -0.00043
         Item               Value     Threshold  Converged?
 Maximum Force            0.000304     0.000450     YES
 RMS     Force            0.000082     0.000300     YES
 Maximum Displacement     0.000951     0.001800     YES
 RMS     Displacement     0.000370     0.001200     YES
 Predicted change in Energy=-1.383932D-07
 Optimization completed.
    -- Stationary point found.
                       ----------------------------
                       !   Optimized Parameters   !
                       ! (Angstroms and Degrees)  !
 ----------------------                            ----------------------
 !      Name          Value   Derivative information (Atomic Units)     !
 ------------------------------------------------------------------------
 !       nh2         1.0028   -DE/DX =    0.0                           !
 !       hn3         1.0046   -DE/DX =    0.0                           !
 !      hnh3       108.343    -DE/DX =    0.0                           !
 !       hn4         1.0027   -DE/DX =    0.0                           !
 !      hnh4       108.356    -DE/DX =    0.0                           !
 !      dih4       117.3955   -DE/DX =    0.0                           !
 !       cn5         1.6152   -DE/DX =    0.0                           !
 !      cnh5       110.335    -DE/DX =    0.0                           !
 !      dih5      -121.5352   -DE/DX =   -0.0001                        !
 !       oc6         1.2336   -DE/DX =   -0.0001                        !
 !      ocn6       110.1028   -DE/DX =    0.0001                        !
 !      dih6      -121.2696   -DE/DX =    0.0                           !
 !       nc7         1.3096   -DE/DX =   -0.0003                        !
 !      ncn7       107.39     -DE/DX =    0.0                           !
 !      dih7        58.7433   -DE/DX =    0.0                           !
 !       hn8         0.9896   -DE/DX =    0.0                           !
 !      hnc8       114.1394   -DE/DX =    0.0                           !
 !      dih8         0.0297   -DE/DX =    0.0                           !
 ------------------------------------------------------------------------
 GradGradGradGradGradGradGradGradGradGradGradGradGradGradGradGradGradGrad

 Largest change from initial coordinates is atom    8       2.328 Angstoms.
 Leave Link  103 at Fri May 25 18:41:53 2007, MaxMem=    6291456 cpu:       0.0
 (Enter /ext/software/64/g03/l202.exe)
 ------------------------------------------------------------------------
                         Z-MATRIX (ANGSTROMS AND DEGREES)
 CD Cent Atom  N1     Length/X     N2    Alpha/Y     N3     Beta/Z      J
 ------------------------------------------------------------------------
   1   1  H 
   2   2  N     1   1.002756(  1)
   3   3  H     2   1.004595(  2)   1  108.343(  8)
   4   4  H     2   1.002700(  3)   1  108.356(  9)   3  117.396( 14)   0
   5   5  C     2   1.615198(  4)   1  110.335( 10)   3 -121.535( 15)   0
   6   6  O     5   1.233638(  5)   2  110.103( 11)   4 -121.270( 16)   0
   7   7  N     5   1.309618(  6)   2  107.390( 12)   4   58.743( 17)   0
   8   8  H     7   0.989639(  7)   5  114.139( 13)   6    0.030( 18)   0
 ------------------------------------------------------------------------
                         Z-Matrix orientation:                         
 ---------------------------------------------------------------------
 Center     Atomic     Atomic              Coordinates (Angstroms)
 Number     Number      Type              X           Y           Z
 ---------------------------------------------------------------------
    1          1             0        0.000000    0.000000    0.000000
    2          7             0        0.000000    0.000000    1.002756
    3          1             0        0.953551    0.000000    1.318907
    4          1             0       -0.437897    0.844952    1.318526
    5          6             0       -0.792136   -1.290866    1.564050
    6          8             0       -0.034068   -1.994002    2.236951
    7          7             0       -2.026147   -1.210858    1.132874
    8          1             0       -2.605145   -1.959660    1.421738
 ---------------------------------------------------------------------
                    Distance matrix (angstroms):
                    1          2          3          4          5
     1  H    0.000000
     2  N    1.002756   0.000000
     3  H    1.627506   1.004595   0.000000
     4  H    1.626102   1.002700   1.627904   0.000000
     5  C    2.177169   1.615198   2.184915   2.178872   0.000000
     6  O    2.996858   2.345302   2.407123   3.011020   1.233638
     7  N    2.618177   2.363975   3.221706   2.604488   1.309618
     8  H    3.556457   3.286730   4.063885   3.545908   1.937664
                    6          7          8
     6  O    0.000000
     7  N    2.408460   0.000000
     8  H    2.697442   0.989639   0.000000
                           Interatomic angles:
       H1-N2-H3=108.343        H1-N2-H4=108.356        H3-N2-H4=108.3863
       H1-N2-C5=110.335        H3-N2-C5=110.8636       H4-N2-C5=110.4783
       N2-C5-O6=110.1028       N2-C5-N7=107.39         O6-C5-N7=142.5072
       C5-N7-H8=114.1394
 Stoichiometry    CH4N2O
 Framework group  C1[X(CH4N2O)]
 Deg. of freedom    18
 Full point group                 C1      NOp   1
 Largest Abelian subgroup         C1      NOp   1
 Largest concise Abelian subgroup C1      NOp   1
                         Standard orientation:                         
 ---------------------------------------------------------------------
 Center     Atomic     Atomic              Coordinates (Angstroms)
 Number     Number      Type              X           Y           Z
 ---------------------------------------------------------------------
    1          1             0        1.517003   -0.799578    0.822719
    2          7             0        1.282786   -0.276526   -0.000128
    3          1             0        1.847254    0.554299   -0.017951
    4          1             0        1.511779   -0.831753   -0.803056
    5          6             0       -0.288926    0.095746   -0.000130
    6          8             0       -0.434511    1.320764   -0.000019
    7          7             0       -0.957845   -1.030151    0.000032
    8          1             0       -1.940973   -0.916816   -0.000107
 ---------------------------------------------------------------------
 Rotational constants (GHZ):     10.5951657      9.5405488      5.1566212
 Leave Link  202 at Fri May 25 18:41:53 2007, MaxMem=    6291456 cpu:       0.1
 (Enter /ext/software/64/g03/l601.exe)
 Copying SCF densities to generalized density rwf, ISCF=0 IROHF=0.

 **********************************************************************

            Population analysis using the SCF density.

 **********************************************************************

 Orbital symmetries:
       Occupied  (A) (A) (A) (A) (A) (A) (A) (A) (A) (A) (A) (A)
       Virtual   (A) (A) (A) (A) (A) (A) (A) (A)
 The electronic state is 1-A.
 Alpha  occ. eigenvalues --   -1.36201  -1.17776  -1.02444  -0.71328  -0.66907
 Alpha  occ. eigenvalues --   -0.66597  -0.59473  -0.56466  -0.50830  -0.40753
 Alpha  occ. eigenvalues --   -0.36171  -0.32620
 Alpha virt. eigenvalues --    0.01907   0.06407   0.08261   0.09288   0.10113
 Alpha virt. eigenvalues --    0.18738   0.20762   0.30563
          Condensed to atoms (all electrons):
              1          2          3          4          5          6
     1  H    0.985808   0.000000   0.000000   0.000000   0.000000   0.000000
     2  N    0.000000   4.429830   0.000000   0.000000   0.000000   0.000000
     3  H    0.000000   0.000000   0.986343   0.000000   0.000000   0.000000
     4  H    0.000000   0.000000   0.000000   0.985264   0.000000   0.000000
     5  C    0.000000   0.000000   0.000000   0.000000   3.823506   0.000000
     6  O    0.000000   0.000000   0.000000   0.000000   0.000000   6.469863
     7  N    0.000000   0.000000   0.000000   0.000000   0.000000   0.000000
     8  H    0.000000   0.000000   0.000000   0.000000   0.000000   0.000000
              7          8
     1  H    0.000000   0.000000
     2  N    0.000000   0.000000
     3  H    0.000000   0.000000
     4  H    0.000000   0.000000
     5  C    0.000000   0.000000
     6  O    0.000000   0.000000
     7  N    5.429148   0.000000
     8  H    0.000000   0.890238
 Mulliken atomic charges:
              1
     1  H    0.014192
     2  N    0.570170
     3  H    0.013657
     4  H    0.014736
     5  C    0.176494
     6  O   -0.469863
     7  N   -0.429148
     8  H    0.109762
 Sum of Mulliken charges=   0.00000
 Atomic charges with hydrogens summed into heavy atoms:
              1
     1  H    0.000000
     2  N    0.612755
     3  H    0.000000
     4  H    0.000000
     5  C    0.176494
     6  O   -0.469863
     7  N   -0.319386
     8  H    0.000000
 Sum of Mulliken charges=   0.00000
 Leave Link  601 at Fri May 25 18:41:53 2007, MaxMem=    6291456 cpu:       0.0
 (Enter /ext/software/64/g03/l9999.exe)

 Test job not archived.
 1\1\GINC-PCIHPC07\POpt\RPM3\ZDO\C1H4N2O1\TEO\25-May-2007\1\\#P PM3 OPT
 =(Z-MATRIX,MAXSTEP=5) TEST\\\0,1\H\N,1,nh2\H,2,hn3,1,hnh3\H,2,hn4,1,hn
 h4,3,dih4,0\C,2,cn5,1,cnh5,3,dih5,0\O,5,oc6,2,ocn6,4,dih6,0\N,5,nc7,2,
 ncn7,4,dih7,0\H,7,hn8,5,hnc8,6,dih8,0\\nh2=1.00275577\hn3=1.00459524\h
 nh3=108.34298776\hn4=1.00270019\hnh4=108.35595165\dih4=117.39550713\cn
 5=1.61519836\cnh5=110.33495419\dih5=-121.5352106\oc6=1.2336381\ocn6=11
 0.10279321\dih6=-121.26964747\nc7=1.30961769\ncn7=107.39004365\dih7=58
 .74328067\hn8=0.98963926\hnc8=114.13935841\dih8=0.02970229\\Version=AM
 64L-G03RevC.02\State=1-A\HF=-0.0267013\RMSD=0.000e+00\RMSF=8.683e-05\D
 ipole=1.1111228,1.85011,-0.8120784\PG=C01 [X(C1H4N2O1)]\\@


 UNDER MOST GREENE GRASSE LY MOST GREATE SNAKES.
 -- PROVERBS AND REASONS OF THE YEAR 1585
           AS REPRINTED IN PAISLEY MAGAZINE 1828.
 Job cpu time:  0 days  0 hours  0 minutes 19.1 seconds.
 File lengths (MBytes):  RWF=     13 Int=      0 D2E=      0 Chk=     10 Scr=      1
 Normal termination of Gaussian 03 at Fri May 25 18:41:53 2007.
