    2936
 i =        1, E =      -532.6075696782
  C        18.9789798741       16.8037753062       15.9502100180
  C        14.0141852974       16.8501997445       16.1737649001
  C        15.2387084232       16.1472600305       16.1718804674
  C        15.2528876794       14.6643310136       16.5093735304
  C        13.9440623828       13.9492405183       16.1751385886
  C        12.7690113823       14.6251910258       16.1748822002
  C        12.7255758991       16.1153127043       16.5111177900
  C        11.4617011237       16.8371990512       16.0595573812
  C        13.9910143255       18.2526472743       15.9882321610
  C        12.7155786844       19.0015920542       16.0122170886
  C        11.4801994558       18.3097201524       16.0203357681
  C        10.3510035941       16.1142933510       15.8019412071
  C        10.3511833212       14.6706132039       15.8238951036
  C        11.4830904690       13.9425828768       15.9782478382
  C        11.4909573180       12.4682416646       15.9232827408
  C        12.7180027766       11.7616010296       15.9264773423
  C        14.0005198458       12.4927240304       15.9832897697
  C        16.5133387692       13.9323634288       16.0618065352
  C        16.4482600013       12.6066474029       15.8118606764
  C        15.2004537659       11.8790644594       15.8377683838
  C        17.7512195873       16.1069734308       15.9954057872
  C        17.7750622018       14.6909732738       16.0107204305
  C        16.4187518185       18.2212241472       15.7778664861
  C        15.2134112320       18.9133897734       15.7795235720
  C        16.4623708625       16.8321573871       15.9837620375
  C        12.6967419362       20.4137192144       15.9956897762
  C        11.5034980991       21.1302432540       15.9722594681
  C        10.2831447211       20.4448003213       15.9690014873
  C        10.2775680343       19.0530458645       15.9948202440
  C        10.2815650796       11.7402880692       15.8971880574
  C        10.2739987587       10.3497786165       15.8772432317
  C        11.4868822782        9.6500653942       15.8796255707
  C        12.6886706855       10.3502935846       15.9017252990
  C        19.0222514269       14.0263855374       15.9690343017
  C        20.2190738506       14.7337391478       15.9010768683
  C        20.1972147326       16.1331721757       15.8957264079
  H        11.4955829270        8.5629290469       15.8618655126
  H         9.3281164410        9.8137754450       15.8584749084
  H        13.6143773282        9.7818533994       15.9140843662
  H        21.1649762620       14.1982931256       15.8642609538
  H        21.1254360390       16.6990880507       15.8525330315
  H        18.9938143374       17.8900837472       15.9525816408
  H        13.6278245615       20.9732863998       16.0107797059
  H        11.5254770832       22.2181405499       15.9586062395
  H         9.3429560738       20.9914366949       15.9533165663
  H         9.3281372573       12.2606864074       15.9070519324
  H        19.0645222045       12.9406308397       16.0031970287
  H         9.3187488007       18.5413782314       16.0200278842
  H        12.6670952274       16.1463080860       17.6354805835
  H        15.3079696684       14.6315762133       17.6338643120
  H         9.4131084876       16.5941610684       15.5331023095
  H         9.3945047813       14.1901502822       15.6315272110
  H        17.3352263357       12.0359174575       15.5459016997
  H        15.2673344473       10.8092163032       15.6494006042
  H        17.3276956902       18.7846175584       15.5924787596
  H        15.2427669586       19.9825098773       15.5953153650
 Cu         0.0101448392       -0.0028280735       -5.6608808717
 Cu         2.5578708414       -0.0025910892       -5.6609060134
 Cu         5.1056748291       -0.0022431655       -5.6610060743
 Cu         7.6535478574       -0.0018350505       -5.6612040542
 Cu        10.2014839108       -0.0014629570       -5.6614419976
 Cu        12.7494629535       -0.0012498687       -5.6615989501
 Cu        15.2974510789       -0.0012619925       -5.6615929900
 Cu        17.8454151525       -0.0014900414       -5.6614400353
 Cu        20.3933220982       -0.0018530085       -5.6612139892
 Cu        22.9411431748       -0.0022370689       -5.6609949965
 Cu        25.4888710742       -0.0025600924       -5.6608400800
 Cu        28.0365090422       -0.0027851162       -5.6607719670
 Cu        30.5840780959       -0.0029162011       -5.6607749046
 Cu        33.1316148342       -0.0029822163       -5.6608158779
 Cu        35.6791499532       -0.0029971174       -5.6608588145
 Cu        38.2267269031       -0.0029541325       -5.6608778843
 Cu         1.2836338882        2.2034818924       -5.6613568396
 Cu         3.8313798112        2.2037148948       -5.6615409198
 Cu         6.3792728165        2.2040599037       -5.6617661191
 Cu         8.9272888390        2.2044410400       -5.6620123646
 Cu        11.4753859098        2.2047380509       -5.6622054973
 Cu        14.0235110913        2.2048400498       -5.6622555743
 Cu        16.5716191822        2.2047180043       -5.6621383965
 Cu        19.1196591910        2.2044329958       -5.6618921589
 Cu        21.6675831673        2.2040949166       -5.6615831071
 Cu        24.2153660883        2.2037938542       -5.6612890169
 Cu        26.7630041202        2.2035799227       -5.6610670157
 Cu        29.3105240400        2.2034569195       -5.6609498787
 Cu        31.8579639188        2.2033938754       -5.6609307800
 Cu        34.4053649736        2.2033589032       -5.6609837449
 Cu        36.9527818161        2.2033438997       -5.6610826549
 Cu        39.5002629168        2.2033688870       -5.6612097207
 Cu         0.0094878753        4.4097379238       -5.6616946772
 Cu         2.5570519188        4.4098089355       -5.6621347590
 Cu         5.1048379802        4.4100050749       -5.6626338289
 Cu         7.6528580832        4.4103121070       -5.6631082297
 Cu        10.2010749793        4.4106351382       -5.6634637214
 Cu        12.7493969940        4.4108410362       -5.6636109127
 Cu        15.2977249439        4.4108320701       -5.6634986241
 Cu        17.8459610815        4.4106420490       -5.6631433605
 Cu        20.3940331382        4.4103740147       -5.6626322302
 Cu        22.9419060279        4.4101220386       -5.6620850221
 Cu        25.4895741076        4.4099470401       -5.6615988986
 Cu        28.0370730737        4.4098599153       -5.6612499073
 Cu        30.5844499284        4.4098309086       -5.6610667682
 Cu        33.1317518955        4.4098198741       -5.6610307165
 Cu        35.6790239231        4.4097938886       -5.6611286749
 Cu        38.2263257939        4.4097539346       -5.6613526418
 Cu         1.2829509998        6.6161639207       -5.6623526390
 Cu         3.8305140896        6.6161860287       -5.6632408512
 Cu         6.3783752413        6.6163361661       -5.6642229823
 Cu         8.9265582404        6.6165831877       -5.6650923685
 Cu        11.4750090515        6.6168240904       -5.6656175648
 Cu        14.0235849761        6.6169180729       -5.6656344797
 Cu        16.5720829164        6.6168291165       -5.6651433780
 Cu        19.1203609905        6.6166420407       -5.6643082406
 Cu        21.6683728937        6.6164510733       -5.6633579543
 Cu        24.2161178678        6.6163241146       -5.6624658373
 Cu        26.7636389536        6.6162809285       -5.6617628266
 Cu        29.3109969891        6.6163019122       -5.6612997327
 Cu        31.8582499385        6.6163429185       -5.6610646655
 Cu        34.4054408717        6.6163578485       -5.6610406702
 Cu        36.9526178536        6.6163158610       -5.6612366389
 Cu        39.4998398537        6.6162338576       -5.6616686621
 Cu         0.0091909841        8.8227649405       -5.6620637420
 Cu         2.5565371754        8.8226590610       -5.6631927114
 Cu         5.1041512623        8.8226601047       -5.6646460220
 Cu         7.6521282591        8.8227841986       -5.6662141762
 Cu        10.2004872657        8.8229781666       -5.6675179335
 Cu        12.7491631366        8.8231151608       -5.6680865910
 Cu        15.2978990308        8.8231071013       -5.6677137942
 Cu        17.8464257875        8.8229810751       -5.6665979726
 Cu        20.3946247031        8.8228351508       -5.6651629055
 Cu        22.9424988758        8.8227420711       -5.6637489520
 Cu        25.4901028034        8.8227270736       -5.6625728741
 Cu        28.0374929811        8.8227891093       -5.6617146915
 Cu        30.5847489389        8.8228890074       -5.6611697249
 Cu        33.1319238646        8.8229659248       -5.6609256464
 Cu        35.6790658924        8.8229709128       -5.6609746880
 Cu        38.2262147628        8.8228928816       -5.6613387288
 Cu         1.2829310976       11.0293448388       -5.6625619601
 Cu         3.8303372617       11.0292520306       -5.6641858787
 Cu         6.3780463037       11.0292851335       -5.6662372517
 Cu         8.9261612033       11.0294322029       -5.6683440874
 Cu        11.4746890961       11.0295841995       -5.6698255383
 Cu        14.0234641147       11.0296172287       -5.6700853831
 Cu        16.5721758635       11.0295151700       -5.6690996435
 Cu        19.1205728532       11.0293661021       -5.6673458190
 Cu        21.6686208719       11.0292611010       -5.6654101031
 Cu        24.2163518332       11.0292401150       -5.6636949106
 Cu        26.7638257739       11.0293111418       -5.6623456677
 Cu        29.3111288037       11.0294449394       -5.6614056941
 Cu        31.8583429164       11.0295718531       -5.6608737593
 Cu        34.4055289821       11.0296309057       -5.6607235916
 Cu        36.9527129176       11.0296018412       -5.6609137335
 Cu        39.4999078778       11.0294888381       -5.6614958005
 Cu         0.0095370790       13.2360888573       -5.6617359198
 Cu         2.5568781003       13.2359858451       -5.6631342322
 Cu         5.1043832717       13.2359781404       -5.6652281733
 Cu         7.6522053898       13.2361162144       -5.6677820986
 Cu        10.2004432603       13.2363270663       -5.6701085758
 Cu        12.7490429682       13.2364370827       -5.6713053499
 Cu        15.2977479171       13.2363520281       -5.6709762459
 Cu        17.8462699312       13.2361540231       -5.6693942035
 Cu        20.3944699131       13.2359700941       -5.6671806866
 Cu        22.9423386663       13.2358821395       -5.6649767557
 Cu        25.4899196914       13.2359080832       -5.6631206307
 Cu        28.0373037298       13.2360180499       -5.6617578017
 Cu        30.5846020073       13.2361500127       -5.6609338401
 Cu        33.1318890353       13.2362419277       -5.6605787654
 Cu        35.6791800918       13.2362608928       -5.6605916354
 Cu        38.2264748876       13.2362028728       -5.6609437089
 Cu         1.2835641090       15.4427059088       -5.6620278665
 Cu         3.8310121895       15.4427169133       -5.6636884175
 Cu         6.3786312195       15.4428760977       -5.6661233519
 Cu         8.9265672385       15.4431850306       -5.6688707089
 Cu        11.4748600891       15.4434469655       -5.6709221779
 Cu        14.0233757590       15.4434641394       -5.6714882456
 Cu        16.5718589106       15.4432431226       -5.6705281709
 Cu        19.1201249221       15.4429430900       -5.6685043484
 Cu        21.6680908459       15.4427140634       -5.6660876129
 Cu        24.2157757933       15.4426180444       -5.6638607962
 Cu        26.7632708027       15.4426339653       -5.6621599532
 Cu        29.3106859070       15.4427089790       -5.6611039158
 Cu        31.8581009038       15.4427879404       -5.6605888147
 Cu        34.4055290527       15.4428338944       -5.6604448493
 Cu        36.9529611293       15.4428238702       -5.6606036673
 Cu        39.5003850778       15.4427689217       -5.6610756974
 Cu         0.0101821297       17.6493209811       -5.6612517642
 Cu         2.5576972437       17.6493640593       -5.6622947624
 Cu         5.1052512852       17.6495572019       -5.6641042925
 Cu         7.6529760647       17.6499501331       -5.6666349042
 Cu        10.2009740668       17.6504058625       -5.6691151214
 Cu        12.7492130211       17.6506289405       -5.6704832169
 Cu        15.2975277998       17.6505031175       -5.6703245536
 Cu        17.8457388408       17.6501521339       -5.6688684914
 Cu        20.3937339216       17.6497550850       -5.6666714106
 Cu        22.9414979283       17.6494600094       -5.6643767327
 Cu        25.4891027726       17.6493050077       -5.6625258903
 Cu        28.0366417993       17.6492669391       -5.6613399438
 Cu        30.5841808656       17.6492879504       -5.6607209803
 Cu        33.1317371207       17.6493239383       -5.6604759662
 Cu        35.6793099541       17.6493429009       -5.6604868810
 Cu        38.2268711481       17.6493338934       -5.6607257226
 Cu         1.2842491165       19.8558880333       -5.6613968150
 Cu         3.8318441984       19.8560850523       -5.6624587550
 Cu         6.3794792076       19.8565032564       -5.6642730300
 Cu         8.9272739788       19.8571030802       -5.6665742597
 Cu        11.4752671106       19.8575729871       -5.6683839767
 Cu        14.0233799380       19.8576600285       -5.6689443502
 Cu        16.5714698144       19.8573929301       -5.6682026796
 Cu        19.1194339391       19.8569108952       -5.6665424112
 Cu        21.6672379278       19.8564129281       -5.6645225153
 Cu        24.2149178631       19.8560449947       -5.6627468514
 Cu        26.7625517737       19.8558460015       -5.6615549574
 Cu        29.3101879315       19.8557758787       -5.6609011376
 Cu        31.8578430795       19.8557679489       -5.6606011595
 Cu        34.4055180745       19.8557829267       -5.6605358818
 Cu        36.9531969649       19.8558008362       -5.6606227581
 Cu        39.5008541089       19.8558218709       -5.6608737529
 Cu         0.0106131112       22.0623168545       -5.6609717639
 Cu         2.5582849971       22.0624939613       -5.6614558995
 Cu         5.1059271241       22.0628701463       -5.6624768632
 Cu         7.6536141303       22.0634941579       -5.6641367501
 Cu        10.2014410448       22.0641570315       -5.6659091226
 Cu        12.7493909666       22.0645069220       -5.6669162312
 Cu        15.2973679032       22.0644228651       -5.6668244374
 Cu        17.8452799285       22.0639950536       -5.6658026356
 Cu        20.3930909355       22.0634018959       -5.6642725832
 Cu        22.9408089523       22.0628470170       -5.6627567338
 Cu        25.4884929321       22.0624689925       -5.6616640650
 Cu        28.0361878992       22.0622768584       -5.6610471099
 Cu        30.5839060173       22.0622008729       -5.6607401785
 Cu        33.1316450229       22.0621869054       -5.6606339821
 Cu        35.6793938936       22.0622038827       -5.6606497558
 Cu        38.2271310585       22.0622389717       -5.6607477667
 Cu         1.2845620940       24.2688368999       -5.6609797460
 Cu         3.8322490048       24.2691420302       -5.6614179076
 Cu         6.3799180575       24.2696910926       -5.6623558178
 Cu         8.9276460963       24.2704140053       -5.6637095619
 Cu        11.4754829958       24.2709868498       -5.6648422501
 Cu        14.0233759439       24.2711409145       -5.6651954423
 Cu        16.5712489573       24.2708738392       -5.6647415264
 Cu        19.1190609863       24.2703148688       -5.6637327391
 Cu        21.6668049236       24.2696688532       -5.6625716797
 Cu        24.2145119478       24.2691378793       -5.6616440335
 Cu        26.7622259840       24.2688079446       -5.6610970612
 Cu        29.3099689433       24.2686420462       -5.6608230977
 Cu        31.8577379613       24.2685809560       -5.6607109849
 Cu        34.4055208982       24.2685789316       -5.6606899441
 Cu        36.9533000531       24.2686138403       -5.6607218387
 Cu        39.5010639589       24.2686839802       -5.6607967901
 Cu         0.0107359323       26.4751469378       -5.6607558340
 Cu         2.5584560462       26.4753878488       -5.6609047978
 Cu         5.1061429833       26.4758190036       -5.6613139344
 Cu         7.6538370553       26.4764749536       -5.6621346961
 Cu        10.2016030623       26.4771558039       -5.6630994933
 Cu        12.7494419612       26.4775388166       -5.6636784292
 Cu        15.2972919959       26.4774857817       -5.6636325587
 Cu        17.8451119253       26.4770618948       -5.6630748039
 Cu        20.3928780406       26.4764367978       -5.6622707068
 Cu        22.9406029585       26.4758219074       -5.6615299359
 Cu        25.4883190487       26.4753719787       -5.6610520766
 Cu        28.0360580105       26.4751088965       -5.6608170042
 Cu        30.5838279130       26.4749809496       -5.6607259509
 Cu        33.1316180244       26.4749429016       -5.6607018735
 Cu        35.6794169025       26.4749618704       -5.6607039137
 Cu        38.2272030987       26.4750228954       -5.6607168424
 Cu         1.2845969623       28.6816269399       -5.6606548849
 Cu         3.8323029854       28.6819570395       -5.6607988379
 Cu         6.3799940315       28.6824840596       -5.6611999179
 Cu         8.9277250005       28.6831418810       -5.6618685989
 Cu        11.4755260338       28.6836698914       -5.6624626244
 Cu        14.0233659431       28.6838378022       -5.6626705187
 Cu        16.5711960634       28.6836048968       -5.6624437276
 Cu        19.1189899559       28.6830898894       -5.6619417758
 Cu        21.6667370233       28.6824798438       -5.6613808739
 Cu        24.2144580511       28.6819529410       -5.6609640318
 Cu        26.7621859381       28.6815948938       -5.6607470114
 Cu        29.3099379909       28.6813928862       -5.6606749524
 Cu        31.8577179568       28.6813029074       -5.6606669138
 Cu        34.4055138962       28.6812918969       -5.6606708120
 Cu        36.9533079587       28.6813369612       -5.6606598720
 Cu        39.5010829885       28.6814398623       -5.6606418542
 Cu         0.0106989603       30.8878609147       -5.6605378839
 Cu         2.5584230138       30.8881188591       -5.6605529698
 Cu         5.1061259606       30.8885270014       -5.6607269131
 Cu         7.6538409909       30.8890860714       -5.6611198861
 Cu        10.2016139955       30.8896480364       -5.6616167646
 Cu        12.7494430294       30.8899819162       -5.6619337057
 Cu        15.2972880445       30.8899539257       -5.6619307395
 Cu        17.8451099657       30.8896027932       -5.6616538329
 Cu        20.3928871294       30.8890669392       -5.6612498508
 Cu        22.9406259295       30.8885229203       -5.6608889045
 Cu        25.4883479283       30.8880919039       -5.6606719847
 Cu        28.0360790201       30.8878138731       -5.6605999447
 Cu        30.5838358894       30.8876629079       -5.6606039232
 Cu        33.1316109475       30.8876107926       -5.6606218856
 Cu        35.6793940676       30.8876298317       -5.6606148674
 Cu        38.2271729585       30.8877107924       -5.6605768863
 Cu         1.2845079949       33.0942840187       -5.6604658186
 Cu         3.8322270055       33.0946080125       -5.6605159462
 Cu         6.3799459458       33.0950660229       -5.6607349217
 Cu         8.9277020598       33.0955889937       -5.6610968669
 Cu        11.4755180549       33.0960041446       -5.6614358223
 Cu        14.0233729952       33.0961460760       -5.6615658488
 Cu        16.5712240798       33.0959739181       -5.6614558568
 Cu        19.1190400036       33.0955580938       -5.6611788607
 Cu        21.6668070552       33.0950548415       -5.6608708622
 Cu        24.2145398945       33.0945851065       -5.6606449378
 Cu        26.7622589226       33.0942419372       -5.6605519099
 Cu        29.3099859391       33.0940278077       -5.6605518943
 Cu        31.8577288539       33.0939218597       -5.6605828788
 Cu        34.4054830385       33.0939028955       -5.6605938313
 Cu        36.9532468891       33.0939558150       -5.6605609232
 Cu        39.5009991124       33.0940779018       -5.6605018873
 Cu         0.0105490303       35.3004417491       -5.6604898179
 Cu         2.5582810485       35.3007049556       -5.6604807426
 Cu         5.1060150478       35.3010829567       -5.6605867974
 Cu         7.6537750437       35.3015441483       -5.6608387819
 Cu        10.2015860994       35.3019830458       -5.6611467918
 Cu        12.7494480782       35.3022419251       -5.6613557591
 Cu        15.2973290079       35.3022231596       -5.6613666972
 Cu        17.8451879809       35.3019520572       -5.6611956670
 Cu        20.3929999086       35.3015210965       -5.6609366734
 Cu        22.9407628987       35.3010639025       -5.6607027781
 Cu        25.4884868797       35.3006739106       -5.6605727893
 Cu        28.0361918488       35.3003999516       -5.6605468619
 Cu        30.5838909186       35.3002398498       -5.6605788570
 Cu        33.1315959946       35.3001747645       -5.6606118282
 Cu        35.6793139849       35.3001858220       -5.6606038211
 Cu        38.2270430355       35.3002738097       -5.6605518351
 Cu         1.2842579710       37.5067937498       -5.6605968890
 Cu         3.8320099232       37.5071107630       -5.6606318033
 Cu         6.3797910654       37.5075150444       -5.6607897991
 Cu         8.9276200530       37.5079460675       -5.6610487561
 Cu        11.4755020416       37.5082741063       -5.6612916571
 Cu        14.0234170697       37.5083851717       -5.6613926250
 Cu        16.5713289361       37.5082509526       -5.6613124901
 Cu        19.1192019712       37.5079189304       -5.6611036167
 Cu        21.6670190240       37.5074959378       -5.6608696990
 Cu        24.2147769315       37.5070948868       -5.6606977537
 Cu        26.7624780064       37.5067827403       -5.6606238981
 Cu        29.3101389855       37.5065767968       -5.6606298864
 Cu        31.8577769467       37.5064658790       -5.6606708404
 Cu        34.4054149230       37.5064318371       -5.6606988577
 Cu        36.9530719735       37.5064697130       -5.6606848398
 Cu        39.5007629593       37.5065837535       -5.6606358690
 Cu         1.2839667320        0.7328758273       -3.6013399149
 Cu         3.8317508112        0.7331748926       -3.6014360203
 Cu         6.3796188037        0.7335749658       -3.6016122130
 Cu         8.9275428085        0.7339920038       -3.6018551733
 Cu        11.4754959790        0.7342982190       -3.6020691928
 Cu        14.0234600867        0.7343882472       -3.6021431425
 Cu        16.5714190908        0.7342391594       -3.6020451296
 Cu        19.1193501685        0.7339120328       -3.6018250415
 Cu        21.6672231537        0.7335179465       -3.6015660156
 Cu        24.2150140667        0.7331589339       -3.6013380243
 Cu        26.7627071394        0.7328967890       -3.6011869475
 Cu        29.3103140809        0.7327377811       -3.6011249707
 Cu        31.8578609689        0.7326558195       -3.6011358549
 Cu        34.4053799545        0.7326218141       -3.6011857614
 Cu        36.9529148841        0.7326298538       -3.6012407893
 Cu        39.5005070292        0.7327008525       -3.6012888299
 Cu         0.0098228550        2.9390749072       -3.6017197122
 Cu         2.5574888909        2.9392548869       -3.6019749002
 Cu         5.1053140003        2.9395829526       -3.6022750878
 Cu         7.6532849565        2.9400100562       -3.6025953358
 Cu        10.2013530101        2.9404121696       -3.6028725488
 Cu        12.7494619314        2.9406381576       -3.6030135949
 Cu        15.2975660303        2.9405991565       -3.6029525726
 Cu        17.8456289268        2.9403321101       -3.6027053876
 Cu        20.3936020029        2.9399570395       -3.6023421980
 Cu        22.9414521101        2.9395950035       -3.6019500155
 Cu        25.4891659373        2.9393259550       -3.6016059787
 Cu        28.0367531060        2.9391649159       -3.6013719408
 Cu        30.5842459756        2.9390878364       -3.6012648178
 Cu        33.1316760179        2.9390508241       -3.6012678065
 Cu        35.6790850674        2.9390258863       -3.6013566702
 Cu        38.2265277550        2.9390208388       -3.6015097573
 Cu         1.2833349082        5.1454629726       -3.6023747093
 Cu         3.8309890406        5.1456269386       -3.6030118913
 Cu         6.3788712398        5.1459560610       -3.6036960596
 Cu         8.9269782493        5.1463761178       -3.6042922886
 Cu        11.4752450343        5.1467270463       -3.6046474540
 Cu        14.0235619362        5.1468379793       -3.6046575087
 Cu        16.5718248014        5.1466740066       -3.6043144657
 Cu        19.1199489366        5.1463520740       -3.6037182450
 Cu        21.6678938090        5.1460111191       -3.6030159745
 Cu        24.2156469065        5.1457509778       -3.6023439264
 Cu        26.7632408913        5.1456020365       -3.6018158621
 Cu        29.3107089344        5.1455488763       -3.6014797892
 Cu        31.8580889961        5.1455398775       -3.6013316621
 Cu        34.4054179780        5.1455298095       -3.6013477173
 Cu        36.9527359271        5.1454908678       -3.6015256788
 Cu        39.5000950223        5.1454478781       -3.6018666888
 Cu         0.0094869850        7.3519049325       -3.6023247688
 Cu         2.5569390769        7.3518770511       -3.6032738418
 Cu         5.1046171495        7.3520201476       -3.6044630177
 Cu         7.6525832471        7.3523361170       -3.6056991819
 Cu        10.2008371983        7.3527079519       -3.6066772315
 Cu        12.7492941198        7.3529468320       -3.6070632156
 Cu        15.2977739586        7.3529248647       -3.6067332015
 Cu        17.8460959260        7.3526980170       -3.6058342255
 Cu        20.3941858191        7.3524080909       -3.6046731504
 Cu        22.9420298448        7.3521701436       -3.6035199857
 Cu        25.4896738336        7.3520381228       -3.6025558929
 Cu        28.0371609164        7.3520140067       -3.6018658665
 Cu        30.5845359513        7.3520500272       -3.6014526976
 Cu        33.1318399055        7.3520899532       -3.6012856792
 Cu        35.6791108650        7.3520797932       -3.6013606618
 Cu        38.2263868409        7.3520028667       -3.6016956884
 Cu         1.2832499677        9.5583800165       -3.6029178481
 Cu         3.8307462320        9.5583331698       -3.6044059922
 Cu         6.3784933445        9.5584841892       -3.6062460491
 Cu         8.9265571091        9.5587890660       -3.6080751165
 Cu        11.4749180793        9.5590708067       -3.6093170731
 Cu        14.0234600586        9.5591599123       -3.6094599354
 Cu        16.5719360078        9.5590390189       -3.6085068847
 Cu        19.1201897678        9.5588079965       -3.6069121669
 Cu        21.6681788809        9.5585930463       -3.6051930704
 Cu        24.2159347804        9.5584720311       -3.6036839007
 Cu        26.7634937660        9.5584690761       -3.6025118341
 Cu        29.3109067638        9.5585540591       -3.6017156777
 Cu        31.8582320002        9.5586579185       -3.6012676845
 Cu        34.4055249537        9.5587059104       -3.6011486545
 Cu        36.9528119609        9.5586608557       -3.6013498009
 Cu        39.5001141091        9.5585279838       -3.6019147288
 Cu         0.0097730404       11.7650469076       -3.6022219412
 Cu         2.5572170926       11.7648820228       -3.6036390492
 Cu         5.1048022315       11.7648711264       -3.6056942494
 Cu         7.6526352620       11.7650751571       -3.6081501437
 Cu        10.2007600197       11.7653691231       -3.6103507186
 Cu        12.7491279023       11.7655320443       -3.6114436805
 Cu        15.2975838220       11.7654819379       -3.6110116880
 Cu        17.8459189732       11.7652838311       -3.6093758508
 Cu        20.3940391405       11.7650629709       -3.6072279860
 Cu        22.9419347140       11.7649299271       -3.6051459023
 Cu        25.4896007372       11.7649280548       -3.6034168545
 Cu        28.0370898026       11.7650421691       -3.6021467276
 Cu        30.5844858148       11.7651990304       -3.6013547431
 Cu        33.1318589534       11.7653059938       -3.6010046372
 Cu        35.6792338620       11.7653189415       -3.6010216836
 Cu        38.2266120531       11.7652258606       -3.6013948771
 Cu         1.2838391315       13.9715639354       -3.6026041027
 Cu         3.8313842544       13.9714490549       -3.6044082906
 Cu         6.3790611715       13.9715481362       -3.6069533881
 Cu         8.9269480134       13.9718479975       -3.6097688585
 Cu        11.4750499441       13.9721160036       -3.6118484534
 Cu        14.0233078554       13.9721419830       -3.6123557935
 Cu        16.5715728856       13.9719479666       -3.6112648942
 Cu        19.1197151818       13.9716790296       -3.6091277379
 Cu        21.6676848918       13.9714860043       -3.6066716860
 Cu        24.2154478312       13.9714391550       -3.6044297825
 Cu        26.7630347295       13.9715391321       -3.6026867987
 Cu        29.3105388153       13.9717051060       -3.6015588239
 Cu        31.8580359124       13.9718459574       -3.6009908188
 Cu        34.4055400420       13.9719089173       -3.6008337535
 Cu        36.9530490678       13.9718739523       -3.6010077550
 Cu        39.5005610043       13.9717468855       -3.6015408521
 Cu         0.0104080913       16.1782338489       -3.6017557984
 Cu         2.5580342372       16.1781099061       -3.6029871318
 Cu         5.1056761523       16.1781330168       -3.6050712424
 Cu         7.6534089459       16.1784129686       -3.6078730913