    56   
 i =        1, E =      -532.6075696782
  C        18.9789798741       16.8037753062       15.9502100180
  C        14.0141852974       16.8501997445       16.1737649001
  C        15.2387084232       16.1472600305       16.1718804674
  C        15.2528876794       14.6643310136       16.5093735304
  C        13.9440623828       13.9492405183       16.1751385886
  C        12.7690113823       14.6251910258       16.1748822002
  C        12.7255758991       16.1153127043       16.5111177900
  C        11.4617011237       16.8371990512       16.0595573812
  C        13.9910143255       18.2526472743       15.9882321610
  C        12.7155786844       19.0015920542       16.0122170886
  C        11.4801994558       18.3097201524       16.0203357681
  C        10.3510035941       16.1142933510       15.8019412071
  C        10.3511833212       14.6706132039       15.8238951036
  C        11.4830904690       13.9425828768       15.9782478382
  C        11.4909573180       12.4682416646       15.9232827408
  C        12.7180027766       11.7616010296       15.9264773423
  C        14.0005198458       12.4927240304       15.9832897697
  C        16.5133387692       13.9323634288       16.0618065352
  C        16.4482600013       12.6066474029       15.8118606764
  C        15.2004537659       11.8790644594       15.8377683838
  C        17.7512195873       16.1069734308       15.9954057872
  C        17.7750622018       14.6909732738       16.0107204305
  C        16.4187518185       18.2212241472       15.7778664861
  C        15.2134112320       18.9133897734       15.7795235720
  C        16.4623708625       16.8321573871       15.9837620375
  C        12.6967419362       20.4137192144       15.9956897762
  C        11.5034980991       21.1302432540       15.9722594681
  C        10.2831447211       20.4448003213       15.9690014873
  C        10.2775680343       19.0530458645       15.9948202440
  C        10.2815650796       11.7402880692       15.8971880574
  C        10.2739987587       10.3497786165       15.8772432317
  C        11.4868822782        9.6500653942       15.8796255707
  C        12.6886706855       10.3502935846       15.9017252990
  C        19.0222514269       14.0263855374       15.9690343017
  C        20.2190738506       14.7337391478       15.9010768683
  C        20.1972147326       16.1331721757       15.8957264079
  H        11.4955829270        8.5629290469       15.8618655126
  H         9.3281164410        9.8137754450       15.8584749084
  H        13.6143773282        9.7818533994       15.9140843662
  H        21.1649762620       14.1982931256       15.8642609538
  H        21.1254360390       16.6990880507       15.8525330315
  H        18.9938143374       17.8900837472       15.9525816408
  H        13.6278245615       20.9732863998       16.0107797059
  H        11.5254770832       22.2181405499       15.9586062395
  H         9.3429560738       20.9914366949       15.9533165663
  H         9.3281372573       12.2606864074       15.9070519324
  H        19.0645222045       12.9406308397       16.0031970287
  H         9.3187488007       18.5413782314       16.0200278842
  H        12.6670952274       16.1463080860       17.6354805835
  H        15.3079696684       14.6315762133       17.6338643120
  H         9.4131084876       16.5941610684       15.5331023095
  H         9.3945047813       14.1901502822       15.6315272110
  H        17.3352263357       12.0359174575       15.5459016997
  H        15.2673344473       10.8092163032       15.6494006042
  H        17.3276956902       18.7846175584       15.5924787596
  H        15.2427669586       19.9825098773       15.5953153650
