#     Step Nr.          Time[fs]        Kin.[a.u.]          Temp[K]            Pot.[a.u.]        Cons Qty[a.u.]        UsedTime[s]
         0            0.000000         1.060235526       291.000000000        -3.892537943        -2.832302417         0.000000000
        20           10.000000         1.085897653       298.043415163        -3.918241969        -2.832344316         0.024000000
        40           20.000000         1.067284887       292.934819103        -3.899598908        -2.832314021         0.025000000
        60           30.000000         1.063753793       291.965649327        -3.896105998        -2.832352205         0.024000000
        80           40.000000         1.032840696       283.481014582        -3.865196420        -2.832355724         0.024000000
       100           50.000000         1.101020730       302.194205382        -3.933496874        -2.832476144         0.041000000
       120           60.000000         1.096756708       301.023870692        -3.929162008        -2.832405301         0.024000000
       140           70.000000         1.067570054       293.013088147        -3.900011519        -2.832441465         0.041000000
       160           80.000000         1.037054145       284.637468587        -3.869427537        -2.832373392         0.025000000
       180           90.000000         1.085257535       297.867723471        -3.917583848        -2.832326314         0.025000000
       200          100.000000         1.089052317       298.909267118        -3.921342767        -2.832290450         0.024000000
       220          110.000000         1.095689942       300.731078253        -3.928051982        -2.832362041         0.025000000
       240          120.000000         1.077705120       295.794832631        -3.910086533        -2.832381412         0.024000000
       260          130.000000         1.088114780       298.651944095        -3.920576491        -2.832461711         0.024000000
       280          140.000000         1.060676756       291.121103180        -3.893234930        -2.832558174         0.024000000
       300          150.000000         1.094834007       300.496152122        -3.927477574        -2.832643567         0.040000000
       320          160.000000         1.070821756       293.905574084        -3.903449911        -2.832628155         0.040000000
       340          170.000000         1.062223247       291.545564284        -3.894830014        -2.832606768         0.024000000
       360          180.000000         1.059696470       290.852046701        -3.892291845        -2.832595375         0.024000000
       380          190.000000         1.086583932       298.231776307        -3.919136591        -2.832552658         0.024000000
       400          200.000000         1.078364122       295.975707038        -3.910871801        -2.832507679         0.024000000
       420          210.000000         1.090303535       299.252685690        -3.922851211        -2.832547676         0.024000000
       440          220.000000         1.081441708       296.820403825        -3.914012238        -2.832570529         0.024000000
       460          230.000000         1.083895270       297.493826436        -3.916454449        -2.832559179         0.024000000
       480          240.000000         1.109304478       304.467823469        -3.941894352        -2.832589874         0.024000000
       500          250.000000         1.087052872       298.360484824        -3.919622179        -2.832569307         0.025000000
       520          260.000000         1.081761826       296.908265823        -3.914289973        -2.832528146         0.025000000
       540          270.000000         1.098873795       301.604941977        -3.931465561        -2.832591766         0.024000000
       560          280.000000         1.106262828       303.632989962        -3.938912656        -2.832649828         0.024000000
       580          290.000000         1.095368381       300.642820292        -3.928013810        -2.832645429         0.024000000
       600          300.000000         1.109908022       304.633476617        -3.942579452        -2.832671430         0.025000000
       620          310.000000         1.121876986       307.918566181        -3.954579242        -2.832702256         0.025000000
       640          320.000000         1.088492845       298.755710420        -3.921164618        -2.832671773         0.024000000
       660          330.000000         1.068240285       293.197044523        -3.900923550        -2.832683265         0.025000000
       680          340.000000         1.074250786       294.846730839        -3.906931872        -2.832681086         0.025000000
       700          350.000000         1.079268271       296.223866292        -3.911952350        -2.832684079         0.024000000
       720          360.000000         1.094180228       300.316711123        -3.926880067        -2.832699839         0.025000000
       740          370.000000         1.094302099       300.350160738        -3.926945941        -2.832643842         0.025000000
       760          380.000000         1.093288773       300.072035873        -3.925996030        -2.832707257         0.025000000
       780          390.000000         1.077830845       295.829339786        -3.910610369        -2.832779524         0.025000000
       800          400.000000         1.073418866       294.618395938        -3.906116787        -2.832697921         0.025000000
       820          410.000000         1.091999173       299.718082768        -3.924760983        -2.832761810         0.025000000
       840          420.000000         1.103728643       302.937439040        -3.936428222        -2.832699579         0.024000000
       860          430.000000         1.083789030       297.464667100        -3.916480988        -2.832691958         0.025000000
       880          440.000000         1.098154928       301.407636559        -3.930884911        -2.832729983         0.025000000
       900          450.000000         1.098549143       301.515835637        -3.931246582        -2.832697439         0.025000000
       920          460.000000         1.087660111       298.527152215        -3.920317541        -2.832657430         0.025000000
       940          470.000000         1.087138218       298.383909622        -3.919826084        -2.832687866         0.025000000
       960          480.000000         1.095070471       300.561053755        -3.927821006        -2.832750536         0.025000000
       980          490.000000         1.099954693       301.901613005        -3.932655201        -2.832700508         0.024000000
      1000          500.000000         1.122353615       308.049385219        -3.955147166        -2.832793551         0.025000000
      1020          510.000000         1.112616819       305.376952734        -3.945378020        -2.832761202         0.025000000
      1040          520.000000         1.122061200       307.969126853        -3.954807426        -2.832746226         0.025000000
      1060          530.000000         1.126425703       309.167040301        -3.959173044        -2.832747340         0.025000000
      1080          540.000000         1.093918297       300.244819691        -3.926579866        -2.832661569         0.024000000
      1100          550.000000         1.066157539       292.625398979        -3.898758530        -2.832600991         0.025000000
      1120          560.000000         1.062967077       291.749721392        -3.895541035        -2.832573958         0.025000000
      1140          570.000000         1.113055173       305.497266765        -3.945598163        -2.832542990         0.025000000
      1160          580.000000         1.119291577       307.208955898        -3.951797776        -2.832506199         0.024000000
      1180          590.000000         1.081513688       296.840160001        -3.914104535        -2.832590847         0.024000000
      1200          600.000000         1.098696792       301.556360541        -3.931315730        -2.832618938         0.025000000
      1220          610.000000         1.103605136       302.903540295        -3.936259941        -2.832654806         0.024000000
      1240          620.000000         1.114988273       306.027839544        -3.947757734        -2.832769461         0.024000000
      1260          630.000000         1.091854313       299.678323483        -3.924669373        -2.832815060         0.024000000
      1280          640.000000         1.100726748       302.113517062        -3.933526506        -2.832799758         0.024000000
      1300          650.000000         1.095996662       300.815262943        -3.928818996        -2.832822334         0.024000000
      1320          660.000000         1.092289021       299.797636782        -3.925071570        -2.832782549         0.025000000
      1340          670.000000         1.127232841       309.388573330        -3.960080441        -2.832847599         0.025000000
      1360          680.000000         1.112365135       305.307873965        -3.945113645        -2.832748509         0.024000000
      1380          690.000000         1.122003577       307.953311261        -3.954756906        -2.832753329         0.024000000
      1400          700.000000         1.075739197       295.255250938        -3.908474433        -2.832735236         0.024000000
      1420          710.000000         1.075952501       295.313795930        -3.908678367        -2.832725866         0.024000000
      1440          720.000000         1.113707443       305.676293620        -3.946383362        -2.832675918         0.024000000
      1460          730.000000         1.138561006       312.497784246        -3.971159638        -2.832598632         0.025000000
      1480          740.000000         1.105330106       303.376988184        -3.937860335        -2.832530230         0.024000000
      1500          750.000000         1.132842415       310.928218029        -3.965353887        -2.832511471         0.024000000
      1520          760.000000         1.125950922       309.036728272        -3.958402482        -2.832451560         0.025000000
      1540          770.000000         1.136584105       311.955189610        -3.969129718        -2.832545613         0.024000000
      1560          780.000000         1.076171638       295.373941700        -3.908623360        -2.832451723         0.024000000
      1580          790.000000         1.084225106       297.584355711        -3.916661569        -2.832436462         0.025000000
      1600          800.000000         1.107354315       303.932567623        -3.939819052        -2.832464737         0.024000000
      1620          810.000000         1.066731250       292.782863997        -3.899134607        -2.832403357         0.024000000
      1640          820.000000         1.057904174       290.360119896        -3.890265533        -2.832361359         0.024000000
      1660          830.000000         1.063948462       292.019079612        -3.896322176        -2.832373714         0.024000000
      1680          840.000000         1.077948438       295.861615352        -3.910321216        -2.832372778         0.024000000
      1700          850.000000         1.081606502       296.865634502        -3.913959688        -2.832353185         0.024000000
      1720          860.000000         1.082746767       297.178599964        -3.915124406        -2.832377639         0.024000000
      1740          870.000000         1.086296170       298.152794919        -3.918696590        -2.832400420         0.040000000
      1760          880.000000         1.091509356       299.583644197        -3.923888700        -2.832379343         0.024000000
      1780          890.000000         1.063002312       291.759392276        -3.895355697        -2.832353385         0.024000000
      1800          900.000000         1.079924503       296.403980531        -3.912285514        -2.832361012         0.024000000
      1820          910.000000         1.080876879       296.665376757        -3.913193490        -2.832316611         0.023000000
      1840          920.000000         1.061914786       291.460902046        -3.894217158        -2.832302372         0.024000000
      1860          930.000000         1.103343898       302.831839049        -3.935689297        -2.832345399         0.024000000
      1880          940.000000         1.084165776       297.568071399        -3.916394007        -2.832228231         0.025000000
      1900          950.000000         1.095097088       300.568359273        -3.927288951        -2.832191863         0.024000000
      1920          960.000000         1.088919079       298.872697802        -3.921120202        -2.832201123         0.024000000
      1940          970.000000         1.056003101       289.838337686        -3.888213774        -2.832210672         0.024000000
      1960          980.000000         1.072996252       294.502402173        -3.905219425        -2.832223173         0.024000000
      1980          990.000000         1.088080089       298.642422339        -3.920328150        -2.832248061         0.024000000
      2000         1000.000000         1.071398764       294.063943801        -3.903758324        -2.832359561         0.025000000
      2020         1010.000000         1.086620590       298.241837666        -3.919024476        -2.832403885         0.024000000
      2040         1020.000000         1.108545746       304.259576324        -3.941009004        -2.832463258         0.024000000
      2060         1030.000000         1.090097451       299.196122304        -3.922595948        -2.832498497         0.024000000
      2080         1040.000000         1.117585810       306.740778406        -3.950057919        -2.832472109         0.025000000
      2100         1050.000000         1.105661511       303.467948074        -3.938100798        -2.832439287         0.024000000
      2120         1060.000000         1.035306276       284.157735524        -3.867592454        -2.832286178         0.024000000
      2140         1070.000000         1.024188336       281.106224300        -3.856454364        -2.832266029         0.024000000
      2160         1080.000000         1.038623343       285.068161937        -3.870895303        -2.832271961         0.024000000
      2180         1090.000000         1.069439720       293.526250245        -3.901768348        -2.832328629         0.024000000
      2200         1100.000000         1.060791871       291.152698331        -3.893197741        -2.832405871         0.024000000
      2220         1110.000000         1.072489211       294.363235961        -3.905004583        -2.832515372         0.025000000
      2240         1120.000000         1.094023332       300.273648257        -3.926582330        -2.832558998         0.024000000
      2260         1130.000000         1.089289149       298.974269953        -3.921842595        -2.832553446         0.024000000
      2280         1140.000000         1.107653807       304.014768408        -3.940209280        -2.832555472         0.024000000
      2300         1150.000000         1.121818579       307.902535208        -3.954331394        -2.832512815         0.024000000
      2320         1160.000000         1.133372813       311.073794767        -3.965901981        -2.832529169         0.024000000
      2340         1170.000000         1.078974677       296.143284316        -3.911465729        -2.832491053         0.025000000
      2360         1180.000000         1.050082373       288.213291250        -3.882586420        -2.832504047         0.024000000
      2380         1190.000000         1.081480987       296.831184671        -3.914032402        -2.832551415         0.024000000
      2400         1200.000000         1.080521687       296.567888166        -3.913035043        -2.832513356         0.025000000
      2420         1210.000000         1.097087932       301.114780941        -3.929719933        -2.832632001         0.025000000
      2440         1220.000000         1.121419639       307.793039340        -3.954089172        -2.832669532         0.024000000
      2460         1230.000000         1.107852144       304.069205285        -3.940475387        -2.832623243         0.024000000
      2480         1240.000000         1.098999334       301.639398283        -3.931748898        -2.832749564         0.024000000
      2500         1250.000000         1.104433867       303.131000037        -3.937260919        -2.832827052         0.023000000
      2520         1260.000000         1.133872746       311.211010024        -3.966743330        -2.832870585         0.024000000
      2540         1270.000000         1.135319493       311.608094774        -3.968199160        -2.832879667         0.024000000
      2560         1280.000000         1.151820788       316.137160922        -3.984726211        -2.832905424         0.024000000
      2580         1290.000000         1.100832399       302.142514685        -3.933673265        -2.832840866         0.024000000
      2600         1300.000000         1.094316758       300.354184215        -3.927153605        -2.832836848         0.024000000
      2620         1310.000000         1.100390981       302.021359822        -3.933191838        -2.832800857         0.024000000
      2640         1320.000000         1.116492540       306.440711544        -3.949210589        -2.832718049         0.024000000
      2660         1330.000000         1.074780612       294.992150518        -3.907442304        -2.832661693         0.024000000
      2680         1340.000000         1.071177097       294.003103438        -3.903813405        -2.832636308         0.024000000
      2700         1350.000000         1.071855611       294.189333365        -3.904367853        -2.832512242         0.024000000
      2720         1360.000000         1.056604560       290.003418365        -3.888983710        -2.832379150         0.024000000
      2740         1370.000000         1.063190142       291.810945512        -3.895499539        -2.832309397         0.024000000
      2760         1380.000000         1.071635586       294.128943766        -3.903882949        -2.832247363         0.024000000
      2780         1390.000000         1.094535577       300.414242995        -3.926770063        -2.832234486         0.024000000
      2800         1400.000000         1.073147443       294.543899169        -3.905361476        -2.832214033         0.023000000
      2820         1410.000000         1.075059784       295.068774140        -3.907280847        -2.832221063         0.040000000
      2840         1420.000000         1.069199770       293.460391956        -3.901415794        -2.832216024         0.024000000
      2860         1430.000000         1.109002748       304.385008423        -3.941243897        -2.832241150         0.024000000
      2880         1440.000000         1.094872011       300.506583135        -3.927157406        -2.832285395         0.023000000
      2900         1450.000000         1.073059770       294.519835797        -3.905351108        -2.832291338         0.024000000
      2920         1460.000000         1.101890375       302.432894606        -3.934227351        -2.832336976         0.024000000
      2940         1470.000000         1.073766383       294.713777875        -3.906124722        -2.832358339         0.024000000
      2960         1480.000000         1.085592196       297.959577144        -3.918023066        -2.832430870         0.024000000
      2980         1490.000000         1.096700951       301.008567296        -3.929178331        -2.832477380         0.024000000
      3000         1500.000000         1.085210699       297.854868518        -3.917781828        -2.832571130         0.024000000
      3020         1510.000000         1.057935093       290.368606130        -3.890525746        -2.832590653         0.024000000
      3040         1520.000000         1.089850431       299.128323448        -3.922502798        -2.832652367         0.024000000
      3060         1530.000000         1.119187497       307.180389230        -3.951915484        -2.832727987         0.023000000
      3080         1540.000000         1.110310480       304.743938083        -3.943016269        -2.832705789         0.040000000
      3100         1550.000000         1.105595044       303.449705011        -3.938265106        -2.832670062         0.024000000
      3120         1560.000000         1.101975597       302.456285172        -3.934650263        -2.832674666         0.024000000
      3140         1570.000000         1.067323974       292.945547320        -3.899965451        -2.832641477         0.024000000
      3160         1580.000000         1.109444492       304.506252694        -3.942090773        -2.832646281         0.024000000
      3180         1590.000000         1.088073663       298.640658631        -3.920680599        -2.832606936         0.024000000
      3200         1600.000000         1.078707408       296.069927802        -3.911305664        -2.832598256         0.023000000
      3220         1610.000000         1.095815655       300.765582372        -3.928416539        -2.832600885         0.024000000
      3240         1620.000000         1.090799547       299.388824711        -3.923339750        -2.832540203         0.024000000
      3260         1630.000000         1.110408855       304.770939036        -3.942974931        -2.832566075         0.024000000
      3280         1640.000000         1.070817810       293.904491026        -3.903360568        -2.832542758         0.024000000
      3300         1650.000000         1.058869225       290.624994897        -3.891432219        -2.832562995         0.024000000
      3320         1660.000000         1.088309040       298.705261969        -3.920880910        -2.832571870         0.024000000
      3340         1670.000000         1.120798224       307.622481153        -3.953329251        -2.832531027         0.025000000
      3360         1680.000000         1.108869673       304.348483722        -3.941330477        -2.832460804         0.041000000
      3380         1690.000000         1.116735632       306.507432413        -3.949149894        -2.832414262         0.040000000
      3400         1700.000000         1.118631377       307.027752437        -3.950997338        -2.832365961         0.041000000
      3420         1710.000000         1.092730577       299.918829342        -3.924964917        -2.832234340         0.024000000
      3440         1720.000000         1.079960381       296.413827887        -3.912152813        -2.832192432         0.025000000
      3460         1730.000000         1.099547991       301.789986740        -3.931716339        -2.832168348         0.024000000
      3480         1740.000000         1.117401082       306.690076764        -3.949539234        -2.832138151         0.024000000
      3500         1750.000000         1.112448987       305.330888418        -3.944606250        -2.832157263         0.024000000
      3520         1760.000000         1.072387841       294.335413307        -3.904622278        -2.832234437         0.025000000
      3540         1770.000000         1.089592410       299.057505018        -3.921857101        -2.832264691         0.024000000
      3560         1780.000000         1.118463493       306.981673731        -3.950797933        -2.832334440         0.024000000
      3580         1790.000000         1.081615594       296.868129845        -3.913960793        -2.832345199         0.024000000
      3600         1800.000000         1.028597105       282.316287315        -3.860921102        -2.832323998         0.024000000
      3620         1810.000000         1.094485625       300.400532808        -3.926844907        -2.832359281         0.024000000
      3640         1820.000000         1.098332188       301.456288396        -3.930642356        -2.832310169         0.024000000
      3660         1830.000000         1.095859624       300.777650490        -3.928180268        -2.832320644         0.024000000
      3680         1840.000000         1.077019725       295.606714124        -3.909366549        -2.832346823         0.024000000
      3700         1850.000000         1.110677507       304.844674969        -3.943058536        -2.832381030         0.024000000
      3720         1860.000000         1.109993986       304.657070899        -3.942353561        -2.832359576         0.041000000
      3740         1870.000000         1.077957184       295.864015884        -3.910299558        -2.832342373         0.025000000
      3760         1880.000000         1.108192951       304.162745571        -3.940516933        -2.832323982         0.024000000
      3780         1890.000000         1.118293187       306.934930262        -3.950647468        -2.832354281         0.024000000
      3800         1900.000000         1.084227825       297.585101731        -3.916580471        -2.832352646         0.024000000
      3820         1910.000000         1.083168671       297.294398759        -3.915541600        -2.832372929         0.024000000
      3840         1920.000000         1.097805139       301.311630663        -3.930241309        -2.832436170         0.025000000
      3860         1930.000000         1.080660031       296.605858916        -3.913051313        -2.832391283         0.024000000
      3880         1940.000000         1.097580862       301.250073990        -3.929987405        -2.832406543         0.024000000
      3900         1950.000000         1.078355553       295.973355252        -3.910727147        -2.832371593         0.024000000
      3920         1960.000000         1.070658408       293.860740422        -3.903002883        -2.832344475         0.024000000
      3940         1970.000000         1.068669044       293.314724928        -3.901023806        -2.832354763         0.023000000
      3960         1980.000000         1.074847527       295.010516555        -3.907191969        -2.832344442         0.024000000
      3980         1990.000000         1.098049048       301.378575926        -3.930381357        -2.832332309         0.023000000
      4000         2000.000000         1.073287935       294.582459654        -3.905549560        -2.832261625         0.024000000
      4020         2010.000000         1.068951461       293.392239262        -3.901228381        -2.832276920         0.024000000
      4040         2020.000000         1.049533407       288.062618107        -3.881794159        -2.832260752         0.024000000
      4060         2030.000000         1.074142268       294.816946044        -3.906459831        -2.832317563         0.024000000
      4080         2040.000000         1.092034331       299.727732627        -3.924338168        -2.832303837         0.024000000
      4100         2050.000000         1.094179425       300.316490921        -3.926499996        -2.832320571         0.024000000
      4120         2060.000000         1.062902988       291.732131006        -3.895213248        -2.832310261         0.024000000
      4140         2070.000000         1.084121530       297.555927308        -3.916418577        -2.832297047         0.024000000
      4160         2080.000000         1.106239707       303.626644067        -3.938616574        -2.832376867         0.024000000
      4180         2090.000000         1.063355220       291.856253852        -3.895711357        -2.832356138         0.041000000
      4200         2100.000000         1.059391257       290.768275614        -3.891771095        -2.832379838         0.024000000
      4220         2110.000000         1.084353876       297.619698766        -3.916765291        -2.832411415         0.024000000
      4240         2120.000000         1.051656978       288.645468785        -3.884009184        -2.832352207         0.025000000
      4260         2130.000000         1.066679632       292.768696324        -3.899112885        -2.832433254         0.025000000
      4280         2140.000000         1.065465094       292.435345326        -3.897903711        -2.832438617         0.025000000
      4300         2150.000000         1.083837401       297.477943146        -3.916307240        -2.832469839         0.024000000
      4320         2160.000000         1.061693405       291.400140029        -3.894189569        -2.832496164         0.025000000
      4340         2170.000000         1.032529437       283.395583914        -3.865010962        -2.832481526         0.040000000
      4360         2180.000000         1.068159110       293.174764725        -3.900694680        -2.832535570         0.024000000
      4380         2190.000000         1.076034397       295.336273618        -3.908598606        -2.832564209         0.025000000
      4400         2200.000000         1.076189088       295.378731244        -3.908771706        -2.832582619         0.024000000
      4420         2210.000000         1.098156315       301.408017266        -3.930798714        -2.832642399         0.024000000
      4440         2220.000000         1.054889740       289.532756269        -3.887483199        -2.832593459         0.024000000
      4460         2230.000000         1.061405876       291.321222775        -3.894023928        -2.832618052         0.024000000
      4480         2240.000000         1.050524052       288.334517663        -3.883058228        -2.832534176         0.024000000
      4500         2250.000000         1.071729120       294.154615703        -3.904262819        -2.832533699         0.025000000
      4520         2260.000000         1.076783836       295.541970148        -3.909350655        -2.832566819         0.024000000
      4540         2270.000000         1.068946503       293.390878434        -3.901444433        -2.832497930         0.024000000