#     Step Nr.          Time[fs]        Kin.[a.u.]          Temp[K]            Pot.[a.u.]        Cons Qty[a.u.]        UsedTime[s]
         0            0.000000         0.295686657       325.900000000        -1.006682822        -0.710996165         0.000000000
        20           10.000000         0.296868668       327.202789529        -1.007849286        -0.710980618         0.015000000
        40           20.000000         0.282624104       311.502711658        -0.993560772        -0.710936668         0.015000000
        60           30.000000         0.278250802       306.682544099        -0.989161054        -0.710910252         0.015000000
        80           40.000000         0.274693922       302.762221613        -0.985572004        -0.710878082         0.015000000
       100           50.000000         0.267313822       294.628021108        -0.978194719        -0.710880897         0.015000000
       120           60.000000         0.261125224       287.807070571        -0.972006846        -0.710881622         0.015000000
       140           70.000000         0.269404090       296.931872978        -0.980288874        -0.710884784         0.015000000
       160           80.000000         0.282309661       311.156139025        -0.993209687        -0.710900026         0.014000000
       180           90.000000         0.261944215       288.709745938        -0.972832344        -0.710888129         0.015000000
       200          100.000000         0.269105211       296.602454711        -0.979986831        -0.710881620         0.015000000
       220          110.000000         0.297119602       327.479363640        -1.008045775        -0.710926173         0.015000000
       240          120.000000         0.270158545       297.763418220        -0.981030900        -0.710872355         0.014000000
       260          130.000000         0.273361046       301.293151990        -0.984246891        -0.710885845         0.020000000
       280          140.000000         0.269291219       296.807468689        -0.980164313        -0.710873094         0.015000000
       300          150.000000         0.287564939       316.948402586        -0.998461358        -0.710896419         0.015000000
       320          160.000000         0.296025608       326.273585249        -1.006922555        -0.710896947         0.015000000
       340          170.000000         0.294426157       324.510702248        -1.005317582        -0.710891424         0.015000000
       360          180.000000         0.276159548       304.377606226        -0.987010817        -0.710851269         0.015000000
       380          190.000000         0.279098152       307.616477590        -0.989919450        -0.710821298         0.015000000
       400          200.000000         0.286116078       315.351496439        -0.996925680        -0.710809603         0.015000000
       420          210.000000         0.293133388       323.085837038        -1.003914479        -0.710781091         0.015000000
       440          220.000000         0.290085370       319.726372263        -1.000865739        -0.710780369         0.015000000
       460          230.000000         0.277616992       305.983972102        -0.988393337        -0.710776344         0.015000000
       480          240.000000         0.256360685       282.555689479        -0.967160003        -0.710799318         0.015000000
       500          250.000000         0.276656373       304.925196518        -0.987504103        -0.710847729         0.015000000
       520          260.000000         0.285751740       314.949930467        -0.996593895        -0.710842156         0.015000000
       540          270.000000         0.271100328       298.801432681        -0.981956240        -0.710855913         0.015000000
       560          280.000000         0.273770304       301.744228142        -0.984641331        -0.710871027         0.014000000
       580          290.000000         0.285056705       314.183877137        -0.995904975        -0.710848269         0.015000000
       600          300.000000         0.270771338       298.438826555        -0.981584124        -0.710812786         0.014000000
       620          310.000000         0.271795600       299.567748438        -0.982594401        -0.710798801         0.015000000
       640          320.000000         0.283021353       311.940552345        -0.993808639        -0.710787285         0.015000000
       660          330.000000         0.279754592       308.339992222        -0.990530465        -0.710775873         0.015000000
       680          340.000000         0.272750375       300.620082999        -0.983538458        -0.710788083         0.015000000
       700          350.000000         0.280031166       308.644826480        -0.990848803        -0.710817637         0.015000000
       720          360.000000         0.268406238       295.832060553        -0.979245607        -0.710839368         0.015000000
       740          370.000000         0.270990081       298.679920781        -0.981853798        -0.710863717         0.014000000
       760          380.000000         0.276129780       304.344795467        -0.986986049        -0.710856269         0.015000000
       780          390.000000         0.266016799       293.198467708        -0.976867294        -0.710850495         0.015000000
       800          400.000000         0.268900097       296.376381627        -0.979759267        -0.710859171         0.015000000
       820          410.000000         0.259775129       286.319022795        -0.970602715        -0.710827586         0.015000000
       840          420.000000         0.276712489       304.987045877        -0.987556879        -0.710844391         0.015000000
       860          430.000000         0.271508745       299.251582529        -0.982334447        -0.710825702         0.015000000
       880          440.000000         0.268255637       295.666071342        -0.979075976        -0.710820338         0.015000000
       900          450.000000         0.267930516       295.307728909        -0.978763336        -0.710832820         0.015000000
       920          460.000000         0.269099958       296.596665270        -0.979939308        -0.710839350         0.015000000
       940          470.000000         0.281130365       309.856342310        -0.991967477        -0.710837112         0.015000000
       960          480.000000         0.282773066       311.666894738        -0.993603818        -0.710830752         0.015000000
       980          490.000000         0.266525348       293.758980429        -0.977347552        -0.710822204         0.015000000
      1000          500.000000         0.259190122       285.674239434        -0.969992944        -0.710802822         0.015000000
      1020          510.000000         0.273638459       301.598911681        -0.984425278        -0.710786818         0.015000000
      1040          520.000000         0.253705448       279.629139791        -0.964435681        -0.710730233         0.015000000
      1060          530.000000         0.263138515       290.026079611        -0.973885045        -0.710746530         0.015000000
      1080          540.000000         0.253669329       279.589330243        -0.964440304        -0.710770975         0.015000000
      1100          550.000000         0.267315553       294.629928960        -0.978134107        -0.710818554         0.014000000
      1120          560.000000         0.256665650       282.891816226        -0.967527304        -0.710861654         0.015000000
      1140          570.000000         0.263165597       290.055928710        -0.974084209        -0.710918612         0.015000000
      1160          580.000000         0.271138841       298.843881830        -0.982115813        -0.710976972         0.015000000
      1180          590.000000         0.269675615       297.231142507        -0.980673966        -0.710998351         0.015000000
      1200          600.000000         0.260324240       286.924241714        -0.971331027        -0.711006787         0.015000000
      1220          610.000000         0.266187441       293.386546635        -0.977201466        -0.711014025         0.015000000
      1240          620.000000         0.273055501       300.956386257        -0.984082517        -0.711027017         0.014000000
      1260          630.000000         0.264914003       291.982988410        -0.975947978        -0.711033974         0.015000000
      1280          640.000000         0.268385143       295.808810139        -0.979442660        -0.711057517         0.015000000
      1300          650.000000         0.286540891       315.819717647        -0.997636737        -0.711095846         0.014000000
      1320          660.000000         0.301833855       332.675319940        -1.012973696        -0.711139842         0.015000000
      1340          670.000000         0.285819211       315.024295781        -0.996974449        -0.711155238         0.014000000
      1360          680.000000         0.272954514       300.845080997        -0.984108701        -0.711154187         0.015000000
      1380          690.000000         0.272393650       300.226907118        -0.983561396        -0.711167746         0.015000000
      1400          700.000000         0.296119856       326.377463879        -1.007351161        -0.711231305         0.015000000
      1420          710.000000         0.279192021       307.719937592        -0.990404762        -0.711212741         0.015000000
      1440          720.000000         0.277373354       305.715438606        -0.988581799        -0.711208445         0.014000000
      1460          730.000000         0.286901470       316.217140596        -0.998118246        -0.711216776         0.015000000
      1480          740.000000         0.294676114       324.786199567        -1.005891650        -0.711215536         0.014000000
      1500          750.000000         0.301121711       331.890409637        -1.012316237        -0.711194525         0.015000000
      1520          760.000000         0.292368235       322.242500563        -1.003529488        -0.711161253         0.014000000
      1540          770.000000         0.289590446       319.180876530        -1.000722055        -0.711131609         0.014000000
      1560          780.000000         0.298733317       329.257968500        -1.009810538        -0.711077221         0.015000000
      1580          790.000000         0.288555413       318.040084030        -0.999568565        -0.711013151         0.014000000
      1600          800.000000         0.273782104       301.757233804        -0.984725108        -0.710943005         0.014000000
      1620          810.000000         0.277814360       306.201506765        -0.988695104        -0.710880744         0.014000000
      1640          820.000000         0.269468776       297.003168309        -0.980266673        -0.710797898         0.014000000
      1660          830.000000         0.277427212       305.774800339        -0.988166482        -0.710739270         0.015000000
      1680          840.000000         0.287005780       316.332109144        -0.997736856        -0.710731076         0.015000000
      1700          850.000000         0.256889173       283.138178475        -0.967597221        -0.710708048         0.014000000
      1720          860.000000         0.260718429       287.358709108        -0.971441388        -0.710722959         0.015000000
      1740          870.000000         0.286340994       315.599394671        -0.997110824        -0.710769830         0.015000000
      1760          880.000000         0.276623395       304.888848238        -0.987432326        -0.710808931         0.020000000
      1780          890.000000         0.280439491       309.094874726        -0.991302410        -0.710862919         0.015000000
      1800          900.000000         0.271281378       299.000982478        -0.982185006        -0.710903629         0.015000000
      1820          910.000000         0.289798677       319.410384403        -1.000775039        -0.710976362         0.014000000
      1840          920.000000         0.274097257       302.104589122        -0.985082360        -0.710985104         0.015000000
      1860          930.000000         0.291722891       321.531215757        -1.002759568        -0.711036676         0.015000000
      1880          940.000000         0.285667408       314.856981378        -0.996699799        -0.711032391         0.015000000
      1900          950.000000         0.272857226       300.737851980        -0.983867835        -0.711010608         0.015000000
      1920          960.000000         0.252170126       277.936938437        -0.963133329        -0.710963203         0.015000000
      1940          970.000000         0.265808203       292.968557862        -0.976753843        -0.710945640         0.015000000
      1960          980.000000         0.281228115       309.964079745        -0.992181654        -0.710953540         0.015000000
      1980          990.000000         0.271205859       298.917747725        -0.982136664        -0.710930805         0.020000000
      2000         1000.000000         0.244436900       269.413528601        -0.955344132        -0.710907233         0.015000000
      2020         1010.000000         0.259465704       285.977980029        -0.970385646        -0.710919942         0.015000000
      2040         1020.000000         0.270340139       297.963567845        -0.981261939        -0.710921800         0.015000000
      2060         1030.000000         0.271659512       299.417755147        -0.982570992        -0.710911480         0.015000000
      2080         1040.000000         0.273278542       301.202218241        -0.984219812        -0.710941270         0.015000000
      2100         1050.000000         0.275319657       303.451894748        -0.986276601        -0.710956943         0.015000000
      2120         1060.000000         0.275557790       303.714360230        -0.986509595        -0.710951804         0.015000000
      2140         1070.000000         0.259205395       285.691072767        -0.970076070        -0.710870675         0.015000000
      2160         1080.000000         0.270364401       297.990308554        -0.981233917        -0.710869517         0.015000000
      2180         1090.000000         0.266942258       294.218490790        -0.977770775        -0.710828516         0.015000000
      2200         1100.000000         0.252565806       278.373048865        -0.963316540        -0.710750734         0.015000000
      2220         1110.000000         0.259117763       285.594486135        -0.969874336        -0.710756573         0.014000000
      2240         1120.000000         0.250955632       276.598346310        -0.961688706        -0.710733074         0.015000000
      2260         1130.000000         0.261587929       288.317054330        -0.972319276        -0.710731347         0.015000000
      2280         1140.000000         0.275211334       303.332502408        -0.985972341        -0.710761007         0.014000000
      2300         1150.000000         0.282249502       311.089833392        -0.993053379        -0.710803876         0.015000000
      2320         1160.000000         0.278871626       307.366804979        -0.989713838        -0.710842211         0.014000000
      2340         1170.000000         0.270834453       298.508390755        -0.981699100        -0.710864648         0.015000000
      2360         1180.000000         0.270722508       298.385007043        -0.981598777        -0.710876270         0.015000000
      2380         1190.000000         0.285292304       314.443549327        -0.996213017        -0.710920713         0.015000000
      2400         1200.000000         0.271967485       299.757197118        -0.982881228        -0.710913742         0.015000000
      2420         1210.000000         0.270879678       298.558236869        -0.981803437        -0.710923759         0.015000000
      2440         1220.000000         0.279191064       307.718882731        -0.990121784        -0.710930721         0.015000000
      2460         1230.000000         0.269597830       297.145409853        -0.980552005        -0.710954175         0.015000000
      2480         1240.000000         0.272340429       300.168247682        -0.983325805        -0.710985377         0.015000000
      2500         1250.000000         0.289902823       319.525172314        -1.000942878        -0.711040055         0.014000000
      2520         1260.000000         0.284550402       313.625839050        -0.995625587        -0.711075185         0.015000000
      2540         1270.000000         0.293732612       323.746290542        -1.004841246        -0.711108634         0.014000000
      2560         1280.000000         0.293184584       323.142263973        -1.004267542        -0.711082958         0.015000000
      2580         1290.000000         0.286304575       315.559254843        -0.997369022        -0.711064447         0.015000000
      2600         1300.000000         0.289516918       319.099835281        -1.000550340        -0.711033422         0.015000000
      2620         1310.000000         0.295322585       325.498727300        -1.006335915        -0.711013329         0.015000000
      2640         1320.000000         0.285736416       314.933040305        -0.996708566        -0.710972150         0.015000000
      2660         1330.000000         0.284579235       313.657618601        -0.995496259        -0.710917024         0.014000000
      2680         1340.000000         0.298233510       328.707090862        -1.009142184        -0.710908675         0.015000000
      2700         1350.000000         0.301493930       332.300661949        -1.012411847        -0.710917917         0.014000000
      2720         1360.000000         0.287320940       316.679471251        -0.998224768        -0.710903829         0.015000000
      2740         1370.000000         0.281688723       310.471753560        -0.992605002        -0.710916279         0.015000000
      2760         1380.000000         0.293376918       323.354250721        -1.004332574        -0.710955657         0.015000000
      2780         1390.000000         0.272005121       299.798678292        -0.982950517        -0.710945396         0.014000000
      2800         1400.000000         0.276906945       305.201372205        -0.987916602        -0.711009656         0.015000000
      2820         1410.000000         0.286906485       316.222667640        -0.997964267        -0.711057782         0.015000000
      2840         1420.000000         0.283802953       312.802016445        -0.994881862        -0.711078909         0.014000000
      2860         1430.000000         0.266233855       293.437702872        -0.977315046        -0.711081191         0.014000000
      2880         1440.000000         0.250785194       276.410493497        -0.961891759        -0.711106564         0.014000000
      2900         1450.000000         0.269178516       296.683249604        -0.980329218        -0.711150703         0.015000000
      2920         1460.000000         0.275794663       303.975437087        -0.986910347        -0.711115683         0.015000000
      2940         1470.000000         0.287801048       317.208637163        -0.998940814        -0.711139766         0.015000000
      2960         1480.000000         0.275475722       303.623905649        -0.986616149        -0.711140428         0.014000000
      2980         1490.000000         0.281542037       310.310078376        -0.992720395        -0.711178358         0.014000000
      3000         1500.000000         0.277199304       305.523604295        -0.988397286        -0.711197982         0.020000000
      3020         1510.000000         0.266298886       293.509378645        -0.977476900        -0.711178014         0.015000000
      3040         1520.000000         0.284829187       313.933111254        -0.996017118        -0.711187930         0.015000000
      3060         1530.000000         0.288533833       318.016298399        -0.999646260        -0.711112427         0.015000000
      3080         1540.000000         0.295463005       325.653494801        -1.006559673        -0.711096668         0.015000000
      3100         1550.000000         0.274441551       302.484063329        -0.985498252        -0.711056701         0.015000000
      3120         1560.000000         0.271623617       299.378191697        -0.982637414        -0.711013797         0.015000000
      3140         1570.000000         0.280787792       309.478764978        -0.991747783        -0.710959991         0.015000000
      3160         1580.000000         0.288373426       317.839501066        -0.999318840        -0.710945414         0.015000000
      3180         1590.000000         0.264370044       291.383447239        -0.975245170        -0.710875126         0.015000000
      3200         1600.000000         0.276876762       305.168104486        -0.987753285        -0.710876523         0.015000000
      3220         1610.000000         0.274500635       302.549184258        -0.985353855        -0.710853220         0.015000000
      3240         1620.000000         0.273720662       301.689514003        -0.984567024        -0.710846361         0.014000000
      3260         1630.000000         0.273941250       301.932641756        -0.984790282        -0.710849032         0.015000000
      3280         1640.000000         0.266968268       294.247158403        -0.977835462        -0.710867194         0.014000000
      3300         1650.000000         0.263422306       290.338868593        -0.974282226        -0.710859920         0.014000000
      3320         1660.000000         0.263152398       290.041382093        -0.974012484        -0.710860086         0.015000000
      3340         1670.000000         0.261134098       287.816850753        -0.971971538        -0.710837441         0.014000000
      3360         1680.000000         0.264962209       292.036120048        -0.975799031        -0.710836822         0.015000000
      3380         1690.000000         0.269299882       296.817016863        -0.980142507        -0.710842625         0.015000000
      3400         1700.000000         0.255596318       281.713219765        -0.966431834        -0.710835516         0.015000000
      3420         1710.000000         0.250685229       276.300314378        -0.961513174        -0.710827945         0.015000000
      3440         1720.000000         0.254939580       280.989375540        -0.965803388        -0.710863808         0.014000000
      3460         1730.000000         0.258203212       284.586486503        -0.969105184        -0.710901972         0.015000000
      3480         1740.000000         0.266540841       293.776056358        -0.977452660        -0.710911819         0.015000000
      3500         1750.000000         0.285656957       314.845462749        -0.996627009        -0.710970052         0.015000000
      3520         1760.000000         0.276290813       304.522282937        -0.987244207        -0.710953395         0.015000000
      3540         1770.000000         0.280380258       309.029589325        -0.991371435        -0.710991177         0.014000000
      3560         1780.000000         0.266565620       293.803367427        -0.977547793        -0.710982173         0.015000000
      3580         1790.000000         0.255275583       281.359711860        -0.966266191        -0.710990607         0.015000000
      3600         1800.000000         0.259931092       286.490921173        -0.970937792        -0.711006701         0.015000000
      3620         1810.000000         0.241993842       266.720838856        -0.952974416        -0.710980574         0.015000000
      3640         1820.000000         0.266176666       293.374670603        -0.977147869        -0.710971202         0.015000000
      3660         1830.000000         0.260225810       286.815754271        -0.971150463        -0.710924652         0.015000000
      3680         1840.000000         0.253243245       279.119709176        -0.964151450        -0.710908205         0.015000000
      3700         1850.000000         0.252592707       278.402698023        -0.963453009        -0.710860303         0.015000000
      3720         1860.000000         0.254394569       280.388675566        -0.965225192        -0.710830623         0.014000000
      3740         1870.000000         0.250297341       275.872790889        -0.961107531        -0.710810191         0.014000000
      3760         1880.000000         0.259003765       285.468839814        -0.969811373        -0.710807608         0.015000000
      3780         1890.000000         0.270920443       298.603167406        -0.981737247        -0.710816805         0.015000000
      3800         1900.000000         0.258515157       284.930305836        -0.969339584        -0.710824428         0.014000000
      3820         1910.000000         0.271563361       299.311778991        -0.982414523        -0.710851162         0.015000000
      3840         1920.000000         0.260620451       287.250719261        -0.971472708        -0.710852258         0.015000000
      3860         1930.000000         0.255752361       281.885206309        -0.966616869        -0.710864508         0.015000000
      3880         1940.000000         0.257201903       283.482863667        -0.968081824        -0.710879921         0.015000000
      3900         1950.000000         0.253280996       279.161316958        -0.964168093        -0.710887097         0.015000000
      3920         1960.000000         0.255910530       282.059538046        -0.966800896        -0.710890365         0.015000000
      3940         1970.000000         0.260326729       286.926984906        -0.971220772        -0.710894043         0.015000000
      3960         1980.000000         0.255407944       281.505597662        -0.966291866        -0.710883922         0.015000000
      3980         1990.000000         0.269668343       297.223127494        -0.980580538        -0.710912195         0.015000000
      4000         2000.000000         0.269281189       296.796414463        -0.980199106        -0.710917917         0.015000000
      4020         2010.000000         0.276588372       304.850247006        -0.987562779        -0.710974407         0.015000000
      4040         2020.000000         0.272984778       300.878437018        -0.983952504        -0.710967726         0.014000000
      4060         2030.000000         0.271051823       298.747972192        -0.982044558        -0.710992735         0.015000000
      4080         2040.000000         0.287121651       316.459819633        -0.998150816        -0.711029164         0.015000000
      4100         2050.000000         0.279624429       308.196529636        -0.990664255        -0.711039826         0.015000000
      4120         2060.000000         0.269195620       296.702101918        -0.980205216        -0.711009596         0.015000000
      4140         2070.000000         0.281044179       309.761349386        -0.992055087        -0.711010908         0.015000000
      4160         2080.000000         0.297824970       328.256805891        -1.008832930        -0.711007961         0.014000000
      4180         2090.000000         0.263776477       290.729228702        -0.974718766        -0.710942290         0.015000000
      4200         2100.000000         0.267493557       294.826121055        -0.978444830        -0.710951274         0.015000000
      4220         2110.000000         0.257921008       284.275447218        -0.968825481        -0.710904473         0.015000000
      4240         2120.000000         0.276622874       304.888274132        -0.987519272        -0.710896399         0.015000000
      4260         2130.000000         0.265558686       292.693544653        -0.976406045        -0.710847360         0.015000000
      4280         2140.000000         0.266184000       293.382753949        -0.977007959        -0.710823958         0.015000000
      4300         2150.000000         0.272247101       300.065383398        -0.983068902        -0.710821801         0.015000000
      4320         2160.000000         0.274428881       302.470098506        -0.985281729        -0.710852848         0.014000000
      4340         2170.000000         0.261855343       288.611792781        -0.972677186        -0.710821843         0.015000000
      4360         2180.000000         0.269096922       296.593319080        -0.979932246        -0.710835323         0.019000000
      4380         2190.000000         0.288489910       317.967887664        -0.999347912        -0.710858001         0.015000000
      4400         2200.000000         0.288006867       317.435487124        -0.998898386        -0.710891519         0.014000000
      4420         2210.000000         0.265694112       292.842809030        -0.976566827        -0.710872714         0.015000000
      4440         2220.000000         0.263100593       289.984282803        -0.973968470        -0.710867878         0.014000000
      4460         2230.000000         0.262525614       289.350552836        -0.973371103        -0.710845489         0.015000000
      4480         2240.000000         0.245350201       270.420150867        -0.956154281        -0.710804081         0.015000000
      4500         2250.000000         0.246430905       271.611281474        -0.957230059        -0.710799154         0.014000000
      4520         2260.000000         0.262681048       289.521868730        -0.973464931        -0.710783883         0.015000000
      4540         2270.000000         0.259599513       286.125462125        -0.970380760        -0.710781247         0.015000000