#     Step Nr.          Time[fs]        Kin.[a.u.]          Temp[K]            Pot.[a.u.]        Cons Qty[a.u.]        UsedTime[s]
         0            0.000000         0.540706485       297.200000000        -1.961464055        -1.420757569         0.000000000
        20           10.000000         0.539861469       296.735535897        -1.960583075        -1.420721606         0.035000000
        40           20.000000         0.534330736       293.695561298        -1.955046878        -1.420716142         0.016000000
        60           30.000000         0.546980987       300.648787529        -1.967704007        -1.420723021         0.016000000
        80           40.000000         0.556593778       305.932470700        -1.977357577        -1.420763799         0.015000000
       100           50.000000         0.530029358       291.331303384        -1.950840150        -1.420810792         0.022000000
       120           60.000000         0.532571606       292.728653280        -1.953434210        -1.420862604         0.015000000
       140           70.000000         0.552251552       303.545760251        -1.973150544        -1.420898993         0.015000000
       160           80.000000         0.549302009       301.924540239        -1.970216379        -1.420914371         0.016000000
       180           90.000000         0.548632939       301.556785211        -1.969573787        -1.420940849         0.015000000
       200          100.000000         0.529766660       291.186911412        -1.950705125        -1.420938465         0.016000000
       220          110.000000         0.551960678       303.385881441        -1.972960699        -1.421000020         0.015000000
       240          120.000000         0.545936124       300.074477711        -1.966932345        -1.420996221         0.016000000
       260          130.000000         0.546340317       300.296642656        -1.967404019        -1.421063702         0.015000000
       280          140.000000         0.542767003       298.332566339        -1.963845993        -1.421078990         0.015000000
       300          150.000000         0.564664931       310.368789913        -1.985771519        -1.421106588         0.015000000
       320          160.000000         0.587503379       322.921971500        -2.008610502        -1.421107123         0.016000000
       340          170.000000         0.569999949       313.301189451        -1.991090004        -1.421090054         0.016000000
       360          180.000000         0.527717607       290.060646458        -1.948774075        -1.421056469         0.015000000
       380          190.000000         0.526500730       289.391788757        -1.947511616        -1.421010886         0.016000000
       400          200.000000         0.531222458       291.987092483        -1.952191950        -1.420969492         0.016000000
       420          210.000000         0.528934860       290.729711399        -1.949860572        -1.420925712         0.016000000
       440          220.000000         0.525311373       288.738056931        -1.946166058        -1.420854686         0.022000000
       460          230.000000         0.539581921       296.581881603        -1.960426680        -1.420844760         0.016000000
       480          240.000000         0.553712331       304.348679732        -1.974570088        -1.420857757         0.015000000
       500          250.000000         0.562627261       309.248781930        -1.983456930        -1.420829669         0.016000000
       520          260.000000         0.565904180       311.049944501        -1.986720508        -1.420816329         0.016000000
       540          270.000000         0.538322803       295.889806183        -1.959123213        -1.420800410         0.016000000
       560          280.000000         0.519105141       285.326794053        -1.939893354        -1.420788213         0.015000000
       580          290.000000         0.521596320       286.696073572        -1.942335635        -1.420739315         0.015000000
       600          300.000000         0.538391109       295.927350780        -1.959119197        -1.420728087         0.015000000
       620          310.000000         0.520352048       286.012157866        -1.941115476        -1.420763429         0.016000000
       640          320.000000         0.501282312       275.530453389        -1.922062624        -1.420780312         0.016000000
       660          330.000000         0.549398271       301.977451155        -1.970268618        -1.420870347         0.016000000
       680          340.000000         0.548392217       301.424472003        -1.969340462        -1.420948245         0.016000000
       700          350.000000         0.538015724       295.721019864        -1.959049764        -1.421034039         0.016000000
       720          360.000000         0.528720967       290.612144877        -1.949767394        -1.421046426         0.016000000
       740          370.000000         0.550645268       302.662864633        -1.971719024        -1.421073755         0.016000000
       760          380.000000         0.563504381       309.730891947        -1.984585863        -1.421081482         0.016000000
       780          390.000000         0.552331591       303.589754146        -1.973404033        -1.421072442         0.016000000
       800          400.000000         0.542651100       298.268859988        -1.963645624        -1.420994524         0.017000000
       820          410.000000         0.537066964       295.199532723        -1.958033615        -1.420966651         0.016000000
       840          420.000000         0.511840048       281.333526566        -1.932748992        -1.420908944         0.015000000
       860          430.000000         0.529279223       290.918990985        -1.950175419        -1.420896196         0.016000000
       880          440.000000         0.562802960       309.345354992        -1.983743069        -1.420940109         0.016000000
       900          450.000000         0.544580702       299.329468189        -1.965500154        -1.420919452         0.016000000
       920          460.000000         0.518078781       284.762653711        -1.939005137        -1.420926356         0.016000000
       940          470.000000         0.520446233       286.063926764        -1.941358782        -1.420912549         0.015000000
       960          480.000000         0.522869483       287.395869417        -1.943762738        -1.420893255         0.016000000
       980          490.000000         0.527707852       290.055284885        -1.948606606        -1.420898754         0.016000000
      1000          500.000000         0.515930030       283.581590407        -1.936774913        -1.420844883         0.015000000
      1020          510.000000         0.527424617       289.899604462        -1.948275619        -1.420851002         0.016000000
      1040          520.000000         0.519009958       285.274476731        -1.939849948        -1.420839989         0.016000000
      1060          530.000000         0.530594073       291.641700101        -1.951444818        -1.420850745         0.015000000
      1080          540.000000         0.526180196       289.215606595        -1.946985633        -1.420805437         0.016000000
      1100          550.000000         0.543725997       298.859678352        -1.964541470        -1.420815473         0.016000000
      1120          560.000000         0.537526380       295.452051154        -1.958306308        -1.420779928         0.016000000
      1140          570.000000         0.522358076       287.114773675        -1.943137240        -1.420779164         0.017000000
      1160          580.000000         0.511875890       281.353227287        -1.932641962        -1.420766072         0.015000000
      1180          590.000000         0.524230164       288.143769530        -1.945030273        -1.420800109         0.016000000
      1200          600.000000         0.522795937       287.355444489        -1.943618893        -1.420822957         0.016000000
      1220          610.000000         0.540018136       296.821648118        -1.960908305        -1.420890169         0.015000000
      1240          620.000000         0.520613463       286.155845272        -1.941514351        -1.420900887         0.016000000
      1260          630.000000         0.513983461       282.511656300        -1.934900870        -1.420917409         0.022000000
      1280          640.000000         0.528674826       290.586783435        -1.949649571        -1.420974745         0.016000000
      1300          650.000000         0.547876422       301.140964736        -1.968932019        -1.421055597         0.016000000
      1320          660.000000         0.563775200       309.879748088        -1.984883697        -1.421108497         0.016000000
      1340          670.000000         0.528533552       290.509131980        -1.949623514        -1.421089962         0.016000000
      1360          680.000000         0.540253247       296.950876821        -1.961411508        -1.421158261         0.015000000
      1380          690.000000         0.534048527       293.540444934        -1.955173099        -1.421124572         0.016000000
      1400          700.000000         0.547126028       300.728509776        -1.968244096        -1.421118068         0.015000000
      1420          710.000000         0.524539543       288.313819806        -1.945598222        -1.421058679         0.015000000
      1440          720.000000         0.512101701       281.477344289        -1.933105809        -1.421004108         0.015000000
      1460          730.000000         0.530827440       291.769970493        -1.951797593        -1.420970153         0.016000000
      1480          740.000000         0.534024689       293.527342492        -1.954969635        -1.420944946         0.015000000
      1500          750.000000         0.520933741       286.331886308        -1.941841190        -1.420907449         0.016000000
      1520          760.000000         0.526632796       289.464378899        -1.947516007        -1.420883211         0.016000000
      1540          770.000000         0.550634328       302.656851413        -1.971553219        -1.420918891         0.015000000
      1560          780.000000         0.541471013       297.620223451        -1.962402992        -1.420931980         0.016000000
      1580          790.000000         0.514978590       283.058629855        -1.935896442        -1.420917852         0.015000000
      1600          800.000000         0.542744946       298.320442321        -1.963703111        -1.420958166         0.015000000
      1620          810.000000         0.556473692       305.866464905        -1.977460781        -1.420987089         0.016000000
      1640          820.000000         0.518848365       285.185656755        -1.939783028        -1.420934663         0.016000000
      1660          830.000000         0.540117247       296.876124467        -1.961085644        -1.420968397         0.016000000
      1680          840.000000         0.534359700       293.711481406        -1.955301082        -1.420941382         0.016000000
      1700          850.000000         0.553592444       304.282783177        -1.974509865        -1.420917421         0.016000000
      1720          860.000000         0.544950283       299.532608912        -1.965865323        -1.420915040         0.016000000
      1740          870.000000         0.526562777       289.425892856        -1.947462141        -1.420899364         0.015000000
      1760          880.000000         0.543363119       298.660222142        -1.964260724        -1.420897605         0.016000000
      1780          890.000000         0.545794535       299.996653013        -1.966634324        -1.420839789         0.016000000
      1800          900.000000         0.544436625       299.250276255        -1.965275328        -1.420838703         0.016000000
      1820          910.000000         0.529118799       290.830813768        -1.949909162        -1.420790363         0.016000000
      1840          920.000000         0.544312484       299.182042016        -1.965101926        -1.420789442         0.016000000
      1860          930.000000         0.551521438       303.144452594        -1.972298491        -1.420777053         0.016000000
      1880          940.000000         0.565111932       310.614484498        -1.985848807        -1.420736875         0.016000000
      1900          950.000000         0.547308258       300.828672907        -1.968042488        -1.420734229         0.016000000
      1920          960.000000         0.535988502       294.606754767        -1.956679875        -1.420691373         0.015000000
      1940          970.000000         0.533977100       293.501184828        -1.954659201        -1.420682101         0.015000000
      1960          980.000000         0.551003720       302.859888107        -1.971683168        -1.420679448         0.015000000
      1980          990.000000         0.535208221       294.177872333        -1.955881146        -1.420672925         0.015000000
      2000         1000.000000         0.508587974       279.546020106        -1.929260274        -1.420672300         0.015000000
      2020         1010.000000         0.522094393       286.969840165        -1.942774445        -1.420680052         0.016000000
      2040         1020.000000         0.545493250       299.831051009        -1.966224642        -1.420731392         0.016000000
      2060         1030.000000         0.530365339       291.515975693        -1.951129073        -1.420763735         0.017000000
      2080         1040.000000         0.516310027       283.790456216        -1.937123767        -1.420813739         0.015000000
      2100         1050.000000         0.521810139       286.813599256        -1.942692477        -1.420882339         0.016000000
      2120         1060.000000         0.552212982       303.524560288        -1.973100441        -1.420887459         0.016000000
      2140         1070.000000         0.551051434       302.886114276        -1.971933780        -1.420882346         0.015000000
      2160         1080.000000         0.552159477       303.495151505        -1.973053123        -1.420893646         0.016000000
      2180         1090.000000         0.546436415       300.349463002        -1.967365796        -1.420929381         0.015000000
      2200         1100.000000         0.535539078       294.359728221        -1.956497861        -1.420958783         0.015000000
      2220         1110.000000         0.543965478       298.991309468        -1.964986140        -1.421020662         0.015000000
      2240         1120.000000         0.561259067       308.496752570        -1.982331313        -1.421072246         0.015000000
      2260         1130.000000         0.550230559       302.434919235        -1.971305795        -1.421075236         0.021000000
      2280         1140.000000         0.566032660       311.120563838        -1.987155956        -1.421123295         0.015000000
      2300         1150.000000         0.535351754       294.256765173        -1.956435575        -1.421083821         0.015000000
      2320         1160.000000         0.531889192       292.353563400        -1.952981771        -1.421092580         0.016000000
      2340         1170.000000         0.547982587       301.199318582        -1.969055331        -1.421072744         0.015000000
      2360         1180.000000         0.560319745       307.980452779        -1.981353945        -1.421034201         0.016000000
      2380         1190.000000         0.537530201       295.454151249        -1.958547703        -1.421017502         0.016000000
      2400         1200.000000         0.534581623       293.833461712        -1.955554824        -1.420973201         0.016000000
      2420         1210.000000         0.532629741       292.760607515        -1.953581135        -1.420951394         0.016000000
      2440         1220.000000         0.533287618       293.122210529        -1.954206985        -1.420919367         0.016000000
      2460         1230.000000         0.539693399       296.643155658        -1.960623849        -1.420930450         0.015000000
      2480         1240.000000         0.549796247       302.196199078        -1.970751341        -1.420955094         0.015000000
      2500         1250.000000         0.557785208       306.587341598        -1.978733101        -1.420947893         0.016000000
      2520         1260.000000         0.553029981       303.973624723        -1.973981693        -1.420951713         0.015000000
      2540         1270.000000         0.555550520       305.359042256        -1.976504891        -1.420954371         0.016000000
      2560         1280.000000         0.552654973       303.767501574        -1.973596162        -1.420941188         0.015000000
      2580         1290.000000         0.540953100       297.335552354        -1.961824019        -1.420870919         0.015000000
      2600         1300.000000         0.544315954       299.183949283        -1.965181559        -1.420865605         0.015000000
      2620         1310.000000         0.544610555       299.345876973        -1.965467553        -1.420856998         0.015000000
      2640         1320.000000         0.556115827       305.669763824        -1.976997466        -1.420881639         0.016000000
      2660         1330.000000         0.537059573       295.195469852        -1.957996189        -1.420936617         0.016000000
      2680         1340.000000         0.544069807       299.048654165        -1.965044714        -1.420974907         0.016000000
      2700         1350.000000         0.554620659       304.847942944        -1.975669782        -1.421049123         0.016000000
      2720         1360.000000         0.579399431       318.467626048        -2.000567196        -1.421167765         0.016000000
      2740         1370.000000         0.547365955       300.860386062        -1.968539733        -1.421173777         0.016000000
      2760         1380.000000         0.538423455       295.945129344        -1.959550594        -1.421127139         0.015000000
      2780         1390.000000         0.547686450       301.036546404        -1.968815963        -1.421129513         0.016000000
      2800         1400.000000         0.567694531       312.034013437        -1.988848829        -1.421154298         0.015000000
      2820         1410.000000         0.523383446       287.678369937        -1.944471975        -1.421088529         0.015000000
      2840         1420.000000         0.532740552       292.821514723        -1.953815587        -1.421075035         0.016000000
      2860         1430.000000         0.544772688       299.434993188        -1.965867132        -1.421094445         0.016000000
      2880         1440.000000         0.561628550       308.699838987        -1.982750469        -1.421121920         0.015000000
      2900         1450.000000         0.565999752       311.102475700        -1.987140850        -1.421141099         0.015000000
      2920         1460.000000         0.558701164       307.090797826        -1.979865000        -1.421163836         0.016000000
      2940         1470.000000         0.609061903       334.771641154        -2.030284857        -1.421222954         0.016000000
      2960         1480.000000         0.601394421       330.557200096        -2.022566598        -1.421172177         0.016000000
      2980         1490.000000         0.578407293       317.922296189        -1.999557436        -1.421150143         0.016000000
      3000         1500.000000         0.561956402       308.880043723        -1.983096794        -1.421140392         0.016000000
      3020         1510.000000         0.544496621       299.283253058        -1.965575675        -1.421079054         0.016000000
      3040         1520.000000         0.546563050       300.419067910        -1.967607715        -1.421044665         0.016000000
      3060         1530.000000         0.547622440       301.001363127        -1.968628977        -1.421006537         0.015000000
      3080         1540.000000         0.564243042       310.136898030        -1.985231417        -1.420988375         0.015000000
      3100         1550.000000         0.559385482       307.466934019        -1.980382593        -1.420997111         0.015000000
      3120         1560.000000         0.566165050       311.193332283        -1.987180587        -1.421015537         0.021000000
      3140         1570.000000         0.560499194       308.079087527        -1.981553499        -1.421054304         0.015000000
      3160         1580.000000         0.551507703       303.136902990        -1.972606767        -1.421099064         0.015000000
      3180         1590.000000         0.552092137       303.458137546        -1.973228533        -1.421136397         0.016000000
      3200         1600.000000         0.562389324       309.117999632        -1.983568905        -1.421179580         0.021000000
      3220         1610.000000         0.587295978       322.807973154        -2.008478454        -1.421182477         0.015000000
      3240         1620.000000         0.582404324       320.119269353        -2.003576224        -1.421171900         0.015000000
      3260         1630.000000         0.559617436       307.594427604        -1.980733639        -1.421116204         0.015000000
      3280         1640.000000         0.550383949       302.519229979        -1.971474392        -1.421090443         0.016000000
      3300         1650.000000         0.540907477       297.310475195        -1.961971901        -1.421064424         0.015000000
      3320         1660.000000         0.514494799       282.792713487        -1.935497130        -1.421002331         0.015000000
      3340         1670.000000         0.548049905       301.236319985        -1.969074964        -1.421025059         0.016000000
      3360         1680.000000         0.549392664       301.974368968        -1.970382652        -1.420989988         0.015000000
      3380         1690.000000         0.558351830       306.898786045        -1.979328785        -1.420976955         0.015000000
      3400         1700.000000         0.557177643       306.253392309        -1.978203301        -1.421025659         0.015000000
      3420         1710.000000         0.539436155       296.501761520        -1.960385579        -1.420949424         0.015000000
      3440         1720.000000         0.542080238       297.955084893        -1.963004102        -1.420923864         0.015000000
      3460         1730.000000         0.567442287       311.895367252        -1.988399122        -1.420956835         0.015000000
      3480         1740.000000         0.546875580       300.590850931        -1.967806175        -1.420930594         0.016000000
      3500         1750.000000         0.548032258       301.226620335        -1.968919496        -1.420887238         0.015000000
      3520         1760.000000         0.550194700       302.415209027        -1.971052594        -1.420857894         0.016000000
      3540         1770.000000         0.517214686       284.287703206        -1.938058335        -1.420843648         0.015000000
      3560         1780.000000         0.539697003       296.645136751        -1.960553252        -1.420856249         0.016000000
      3580         1790.000000         0.565960444       311.080870219        -1.986834250        -1.420873806         0.016000000
      3600         1800.000000         0.580979196       319.335946094        -2.001944153        -1.420964957         0.015000000
      3620         1810.000000         0.556404324       305.828337079        -1.977394824        -1.420990499         0.016000000
      3640         1820.000000         0.601113122       330.402583965        -2.022160971        -1.421047848         0.015000000
      3660         1830.000000         0.580222988       318.920295290        -2.001255277        -1.421032289         0.015000000
      3680         1840.000000         0.547063310       300.694036689        -1.968039113        -1.420975803         0.015000000
      3700         1850.000000         0.522335781       287.102519262        -1.943268307        -1.420932526         0.015000000
      3720         1860.000000         0.522230648       287.044732885        -1.943119950        -1.420889302         0.015000000
      3740         1870.000000         0.550183152       302.408861767        -1.971047864        -1.420864712         0.016000000
      3760         1880.000000         0.537722149       295.559655656        -1.958582782        -1.420860634         0.016000000
      3780         1890.000000         0.535581205       294.382883314        -1.956464037        -1.420882832         0.015000000
      3800         1900.000000         0.554125309       304.575673630        -1.975024120        -1.420898810         0.016000000
      3820         1910.000000         0.558200360       306.815530474        -1.979087603        -1.420887243         0.015000000
      3840         1920.000000         0.543175791       298.557256809        -1.964090201        -1.420914411         0.015000000
      3860         1930.000000         0.552354755       303.602486296        -1.973212753        -1.420857998         0.015000000
      3880         1940.000000         0.563252688       309.592548675        -1.984119617        -1.420866929         0.015000000
      3900         1950.000000         0.533457005       293.215314284        -1.954342494        -1.420885489         0.015000000
      3920         1960.000000         0.520876584       286.300469657        -1.941720832        -1.420844248         0.015000000
      3940         1970.000000         0.527624450       290.009442800        -1.948444055        -1.420819605         0.022000000
      3960         1980.000000         0.540976959       297.348666128        -1.961826689        -1.420849730         0.015000000
      3980         1990.000000         0.547836702       301.119132581        -1.968713336        -1.420876634         0.015000000
      4000         2000.000000         0.553971813       304.491304264        -1.974896185        -1.420924371         0.016000000
      4020         2010.000000         0.544769869       299.433443905        -1.965714087        -1.420944218         0.015000000
      4040         2020.000000         0.558948514       307.226753846        -1.979934205        -1.420985691         0.015000000
      4060         2030.000000         0.548266398       301.355315701        -1.969239781        -1.420973383         0.015000000
      4080         2040.000000         0.531504884       292.142328038        -1.952436584        -1.420931701         0.015000000
      4100         2050.000000         0.536407492       294.837053151        -1.957317840        -1.420910348         0.015000000
      4120         2060.000000         0.530018858       291.325532182        -1.950916885        -1.420898027         0.015000000
      4140         2070.000000         0.546026859       300.124350381        -1.966912854        -1.420885994         0.016000000
      4160         2080.000000         0.545561652       299.868648484        -1.966413802        -1.420852150         0.015000000
      4180         2090.000000         0.541845036       297.825805812        -1.962689061        -1.420844025         0.015000000
      4200         2100.000000         0.560575529       308.121044956        -1.981407186        -1.420831657         0.016000000
      4220         2110.000000         0.555911015       305.557188862        -1.976775631        -1.420864616         0.015000000
      4240         2120.000000         0.541777509       297.788689586        -1.962662296        -1.420884787         0.015000000
      4260         2130.000000         0.539635606       296.611390102        -1.960523225        -1.420887618         0.016000000
      4280         2140.000000         0.545600535       299.890020416        -1.966582738        -1.420982203         0.016000000
      4300         2150.000000         0.540136532       296.886724220        -1.961140677        -1.421004146         0.015000000
      4320         2160.000000         0.573872165       315.429557481        -1.994927764        -1.421055599         0.016000000
      4340         2170.000000         0.568372749       312.406796740        -1.989419777        -1.421047028         0.015000000
      4360         2180.000000         0.565207487       310.667006668        -1.986284365        -1.421076877         0.015000000
      4380         2190.000000         0.574121955       315.566854851        -1.995200698        -1.421078744         0.016000000
      4400         2200.000000         0.574242601       315.633168466        -1.995266018        -1.421023416         0.016000000
      4420         2210.000000         0.563824227       309.906695589        -1.984805911        -1.420981684         0.015000000
      4440         2220.000000         0.565865549       311.028711015        -1.986804800        -1.420939251         0.015000000
      4460         2230.000000         0.547475569       300.920635263        -1.968361744        -1.420886176         0.015000000
      4480         2240.000000         0.542895742       298.403327890        -1.963710744        -1.420815001         0.016000000
      4500         2250.000000         0.530229519       291.441322048        -1.951038411        -1.420808892         0.016000000
      4520         2260.000000         0.526156165       289.202398089        -1.946923566        -1.420767401         0.016000000
      4540         2270.000000         0.538653393       296.071515094        -1.959369340        -1.420715947         0.015000000