       3
 i =        1, E =       -17.1660539743
  O         0.0000000005        0.0835823543        0.0000000016
  H         0.8165448297        0.6576687260        0.0000000002
  H        -0.8165448292        0.6576687255        0.0000000003
       3
 i =        2, E =       -17.1677388006
  O         0.0000000010        0.0602369440        0.0000000034
  H         0.7713957738        0.6670903160        0.0000000004
  H        -0.7713957728        0.6670903152        0.0000000005
       3
 i =        3, E =       -17.1677647793
  O         0.0000000016        0.0612449725        0.0000000066
  H         0.7701212060        0.6649383029        0.0000000006
  H        -0.7701212042        0.6649383016        0.0000000009
       3
 i =        4, E =       -17.1677688384
  O         0.0000000025        0.0610051665        0.0000000143
  H         0.7703611315        0.6626140564        0.0000000011
  H        -0.7703611286        0.6626140543        0.0000000013
       3
 i =        5, E =       -17.1677701877
  O         0.0000000036        0.0597644084        0.0000000290
  H         0.7705358782        0.6608149709        0.0000000015
  H        -0.7705358739        0.6608149678        0.0000000019
       3
 i =        6, E =       -17.1677717757
  O         0.0000000069        0.0565386528        0.0000000929
  H         0.7708231799        0.6571864840        0.0000000029
  H        -0.7708231716        0.6571864779        0.0000000034
       3
 i =        7, E =       -17.1677719057
  O         0.0000000088        0.0557750052        0.0000001715
  H         0.7708525133        0.6566165520        0.0000000038
  H        -0.7708525028        0.6566165441        0.0000000043
       3
 i =        8, E =       -17.1677719057
  O         0.0000000088        0.0557750052        0.0000001715
  H         0.7708525133        0.6566165520        0.0000000038
  H        -0.7708525028        0.6566165441        0.0000000043
