# TCB on KCl for PMF calculation

1099 atoms 
81 bonds 
129 angles 
192 dihedrals 
0 impropers 
7 atom types
6 bond types 
9 angle types 
15 dihedral types 
0 improper types 

0 50.24 xlo xhi 
0 100 ylo yhi 
0 50.24 zlo zhi 

Masses 

1 12.011 
2 12.011 
3 1.008 
4 12.011 
5 14.007 
6 39.098 
7 35.45 

Bond Coeffs 

1 305. 1.375 
2 300. 1.49 
3 340. 1.08 
4 305. 1.375 
5 345. 1.435 
6 1053. 1.18

Angle Coeffs 

1 40. 120. 
2 40. 120. 
3 30. 120. 
4 40. 120. 
5 40. 120. 
6 30. 120. 
7 40. 120. 
8 35. 120. 
9 40. 180. 

Dihedral Coeffs 

1 3.1 2 180 0.5 
2 4.2 2 180 0.5 
3 3.1 2 180 0.5 
4 4.2 2 180 0.5 
5 0.89 2 180 0.5
6 3.1 2 180 0.5 
7 3.1 2 180 0.5 
8 3.1 2 180 0.5 
9 4.2 2 180 0.5 
10 2.4 2 180 0.5 
11 3.1 2 180 0.5 
12 3.1 2 180 0.5 
13 4.2 2 180 0.5 
14 2. 2 180 0.5 
15 2.4 2 180 0.5

Atoms

1 1 1 -0.0256343 23.0123 10.927 17.8637 
2 1 2 -0.00436133 21.6577 10.9325 17.4769 
3 1 1 -0.0256343 20.6195 10.9466 18.4288 
4 1 2 -0.00436133 20.9619 10.9569 19.795 
5 1 1 -0.0256343 22.3053 10.9501 20.2186 
6 1 2 -0.00436133 23.3174 10.9343 19.2389 
7 1 3 0.0341627 21.4096 10.9258 16.4263 
8 1 3 0.0341627 20.1762 10.9444 20.5353 
9 1 3 0.0341627 24.3512 10.9534 19.549 
10 1 1 -0.0256643 24.1132 10.9189 16.8284 
11 1 2 -0.0297107 25.3335 10.2588 17.0777 
12 1 2 -0.0297107 26.3549 10.2509 16.118 
13 1 1 -0.03027 26.1875 10.9029 14.8792 
14 1 2 -0.0297107 24.9669 11.5629 14.63 
15 1 2 -0.0297107 23.9456 11.571 15.5898 
16 1 3 0.0508218 25.4991 9.73491 18.0074 
17 1 3 0.0508218 27.2678 9.72083 16.3457 
18 1 3 0.0508218 24.8009 12.0874 13.7007 
19 1 3 0.0508218 23.0325 12.101 15.3626 
20 1 1 -0.0208233 27.289 10.8945 13.8443 
21 1 2 -0.0297107 28.6467 10.8639 14.2329 
22 1 2 -0.0218828 29.6694 10.8574 13.2731 
23 1 2 -0.125118 29.3497 10.8785 11.9083 
24 1 2 -0.0218828 28.0078 10.9077 11.504 
25 1 2 -0.0297107 26.986 10.917 12.4648 
26 1 3 0.0587778 28.9237 10.8587 15.2767 
27 1 3 0.0861268 30.7027 10.8371 13.59 
28 1 3 0.0861268 27.7561 10.922 10.4529 
29 1 3 0.0587778 25.9616 10.928 12.1232 
30 1 4 0.170848 30.3962 10.8705 10.9254 
31 1 5 -0.244205 31.2559 10.8636 10.118 
32 1 1 -0.0256643 19.1717 10.9452 17.9953 
33 1 2 -0.0297107 18.1899 11.6119 18.756 
34 1 2 -0.0297107 16.8472 11.6112 18.3547 
35 1 1 -0.03027 16.4446 10.9437 17.1799 
36 1 2 -0.0297107 17.4266 10.2769 16.419 
37 1 2 -0.0297107 18.7694 10.2776 16.8206 
38 1 3 0.0508218 18.4564 12.1476 19.6552 
39 1 3 0.0508218 16.1311 12.1467 18.96 
40 1 3 0.0508218 17.1609 9.74071 15.5201 
41 1 3 0.0508218 19.4859 9.74216 16.2155 
42 1 1 -0.0208233 14.9964 10.9428 16.7468 
43 1 2 -0.0297107 13.9559 10.9823 17.7014 
44 1 2 -0.0218828 12.6119 10.98 17.3003 
45 1 2 -0.125118 12.2874 10.9413 15.937 
46 1 2 -0.0218828 13.307 10.9033 14.9755 
47 1 2 -0.0297107 14.6506 10.9027 15.378 
48 1 3 0.0587778 14.1749 11.0009 18.7587 
49 1 3 0.0861268 11.8294 11.0074 18.0455 
50 1 3 0.0861268 13.0619 10.8754 13.9231 
51 1 3 0.0587778 15.414 10.8845 14.6144 
52 1 4 0.170848 10.9119 10.9407 15.5258 
53 1 5 -0.244205 9.78194 10.9402 15.1879 
54 1 1 -0.0256643 22.6528 10.9594 21.6895 
55 1 2 -0.0297107 23.8067 10.3026 22.1634 
56 1 2 -0.0297107 24.129 10.3115 23.5272 
57 1 1 -0.03027 23.3075 10.9772 24.4596 
58 1 2 -0.0297107 22.1534 11.6338 23.9855 
59 1 2 -0.0297107 21.8311 11.6251 22.6217 
60 1 3 0.0508218 24.4566 9.76842 21.4861 
61 1 3 0.0508218 25.0148 9.7835 23.8477 
62 1 3 0.0508218 21.5032 12.1682 24.6623 
63 1 3 0.0508218 20.9453 12.1529 22.3004 
64 1 1 -0.0208233 23.6551 10.9868 25.9305 
65 1 2 -0.0297107 25.0018 10.9593 26.3557 
66 1 2 -0.0218828 25.3251 10.9696 27.7205 
67 1 2 -0.125118 24.3055 11.0047 28.6819 
68 1 2 -0.0218828 22.9631 11.031 28.2785 
69 1 2 -0.0297107 22.6412 11.0235 26.9134 
70 1 3 0.0587778 25.8086 10.9437 25.6382 
71 1 3 0.0861268 26.3616 10.9512 28.0266 
72 1 3 0.0861268 22.1735 11.056 29.0159 
73 1 3 0.0587778 21.5983 11.0326 26.6329 
74 1 4 0.170848 24.6358 11.0137 30.0791 
75 1 5 -0.244205 24.9075 11.0212 31.2268 
76 3 6 1 0 0 0 
77 3 6 1 3.14 0 3.14 
78 2 6 1 3.14 3.14 0 
79 2 6 1 0 3.14 3.14 
80 3 6 1 6.28 0 0 
81 3 6 1 9.42 0 3.14 
82 2 6 1 9.42 3.14 0 
83 2 6 1 6.28 3.14 3.14 
84 3 6 1 12.56 0 0 
85 3 6 1 15.7 0 3.14 
86 2 6 1 15.7 3.14 0 
87 2 6 1 12.56 3.14 3.14 
88 3 6 1 18.84 0 0 
89 3 6 1 21.98 0 3.14 
90 2 6 1 21.98 3.14 0 
91 2 6 1 18.84 3.14 3.14 
92 3 6 1 25.12 0 0 
93 3 6 1 28.26 0 3.14 
94 2 6 1 28.26 3.14 0 
95 2 6 1 25.12 3.14 3.14 
96 3 6 1 31.4 0 0 
97 3 6 1 34.54 0 3.14 
98 2 6 1 34.54 3.14 0 
99 2 6 1 31.4 3.14 3.14 
100 3 6 1 37.68 0 0 
101 3 6 1 40.82 0 3.14 
102 2 6 1 40.82 3.14 0 
103 2 6 1 37.68 3.14 3.14 
104 3 6 1 43.96 0 0 
105 3 6 1 47.1 0 3.14 
106 2 6 1 47.1 3.14 0 
107 2 6 1 43.96 3.14 3.14 
108 2 6 1 0 6.28 0 
109 2 6 1 3.14 6.28 3.14 
110 2 6 1 3.14 9.42 0 
111 2 6 1 0 9.42 3.14 
112 2 6 1 6.28 6.28 0 
113 2 6 1 9.42 6.28 3.14 
114 2 6 1 9.42 9.42 0 
115 2 6 1 6.28 9.42 3.14 
116 2 6 1 12.56 6.28 0 
117 2 6 1 15.7 6.28 3.14 
118 2 6 1 15.7 9.42 0 
119 2 6 1 12.56 9.42 3.14 
120 2 6 1 18.84 6.28 0 
121 2 6 1 21.98 6.28 3.14 
122 2 6 1 21.98 9.42 0 
123 2 6 1 18.84 9.42 3.14 
124 2 6 1 25.12 6.28 0 
125 2 6 1 28.26 6.28 3.14 
126 2 6 1 28.26 9.42 0 
127 2 6 1 25.12 9.42 3.14 
128 2 6 1 31.4 6.28 0
129 2 6 1 34.54 6.28 3.14 
130 2 6 1 34.54 9.42 0 
131 2 6 1 31.4 9.42 3.14 
132 2 6 1 37.68 6.28 0 
133 2 6 1 40.82 6.28 3.14 
134 2 6 1 40.82 9.42 0 
135 2 6 1 37.68 9.42 3.14 
136 2 6 1 43.96 6.28 0 
137 2 6 1 47.1 6.28 3.14 
138 2 6 1 47.1 9.42 0 
139 2 6 1 43.96 9.42 3.14 
140 3 6 1 0 0 6.28 
141 3 6 1 3.14 0 9.42 
142 2 6 1 3.14 3.14 6.28 
143 2 6 1 0 3.14 9.42 
144 3 6 1 6.28 0 6.28 
145 3 6 1 9.42 0 9.42 
146 2 6 1 9.42 3.14 6.28 
147 2 6 1 6.28 3.14 9.42 
148 3 6 1 12.56 0 6.28 
149 3 6 1 15.7 0 9.42 
150 2 6 1 15.7 3.14 6.28 
151 2 6 1 12.56 3.14 9.42 
152 3 6 1 18.84 0 6.28 
153 3 6 1 21.98 0 9.42 
154 2 6 1 21.98 3.14 6.28 
155 2 6 1 18.84 3.14 9.42 
156 3 6 1 25.12 0 6.28 
157 3 6 1 28.26 0 9.42 
158 2 6 1 28.26 3.14 6.28 
159 2 6 1 25.12 3.14 9.42 
160 3 6 1 31.4 0 6.28 
161 3 6 1 34.54 0 9.42 
162 2 6 1 34.54 3.14 6.28 
163 2 6 1 31.4 3.14 9.42 
164 3 6 1 37.68 0 6.28 
165 3 6 1 40.82 0 9.42 
166 2 6 1 40.82 3.14 6.28 
167 2 6 1 37.68 3.14 9.42 
168 3 6 1 43.96 0 6.28 
169 3 6 1 47.1 0 9.42 
170 2 6 1 47.1 3.14 6.28 
171 2 6 1 43.96 3.14 9.42 
172 2 6 1 0 6.28 6.28 
173 2 6 1 3.14 6.28 9.42 
174 2 6 1 3.14 9.42 6.28 
175 2 6 1 0 9.42 9.42 
176 2 6 1 6.28 6.28 6.28 
177 2 6 1 9.42 6.28 9.42 
178 2 6 1 9.42 9.42 6.28 
179 2 6 1 6.28 9.42 9.42 
180 2 6 1 12.56 6.28 6.28 
181 2 6 1 15.7 6.28 9.42 
182 2 6 1 15.7 9.42 6.28 
183 2 6 1 12.56 9.42 9.42 
184 2 6 1 18.84 6.28 6.28 
185 2 6 1 21.98 6.28 9.42 
186 2 6 1 21.98 9.42 6.28 
187 2 6 1 18.84 9.42 9.42 
188 2 6 1 25.12 6.28 6.28 
189 2 6 1 28.26 6.28 9.42 
190 2 6 1 28.26 9.42 6.28 
191 2 6 1 25.12 9.42 9.42 
192 2 6 1 31.4 6.28 6.28 
193 2 6 1 34.54 6.28 9.42 
194 2 6 1 34.54 9.42 6.28 
195 2 6 1 31.4 9.42 9.42 
196 2 6 1 37.68 6.28 6.28 
197 2 6 1 40.82 6.28 9.42 
198 2 6 1 40.82 9.42 6.28 
199 2 6 1 37.68 9.42 9.42 
200 2 6 1 43.96 6.28 6.28 
201 2 6 1 47.1 6.28 9.42 
202 2 6 1 47.1 9.42 6.28 
203 2 6 1 43.96 9.42 9.42 
204 3 6 1 0 0 12.56 
205 3 6 1 3.14 0 15.7 
206 2 6 1 3.14 3.14 12.56 
207 2 6 1 0 3.14 15.7 
208 3 6 1 6.28 0 12.56 
209 3 6 1 9.42 0 15.7 
210 2 6 1 9.42 3.14 12.56 
211 2 6 1 6.28 3.14 15.7 
212 3 6 1 12.56 0 12.56 
213 3 6 1 15.7 0 15.7 
214 2 6 1 15.7 3.14 12.56 
215 2 6 1 12.56 3.14 15.7 
216 3 6 1 18.84 0 12.56 
217 3 6 1 21.98 0 15.7 
218 2 6 1 21.98 3.14 12.56 
219 2 6 1 18.84 3.14 15.7 
220 3 6 1 25.12 0 12.56 
221 3 6 1 28.26 0 15.7 
222 2 6 1 28.26 3.14 12.56 
223 2 6 1 25.12 3.14 15.7 
224 3 6 1 31.4 0 12.56 
225 3 6 1 34.54 0 15.7 
226 2 6 1 34.54 3.14 12.56 
227 2 6 1 31.4 3.14 15.7 
228 3 6 1 37.68 0 12.56 
229 3 6 1 40.82 0 15.7 
230 2 6 1 40.82 3.14 12.56 
231 2 6 1 37.68 3.14 15.7 
232 3 6 1 43.96 0 12.56 
233 3 6 1 47.1 0 15.7 
234 2 6 1 47.1 3.14 12.56 
235 2 6 1 43.96 3.14 15.7 
236 2 6 1 0 6.28 12.56 
237 2 6 1 3.14 6.28 15.7 
238 2 6 1 3.14 9.42 12.56 
239 2 6 1 0 9.42 15.7 
240 2 6 1 6.28 6.28 12.56 
241 2 6 1 9.42 6.28 15.7 
242 2 6 1 9.42 9.42 12.56 
243 2 6 1 6.28 9.42 15.7 
244 2 6 1 12.56 6.28 12.56 
245 2 6 1 15.7 6.28 15.7 
246 2 6 1 15.7 9.42 12.56 
247 2 6 1 12.56 9.42 15.7 
248 2 6 1 18.84 6.28 12.56 
249 2 6 1 21.98 6.28 15.7 
250 2 6 1 21.98 9.42 12.56 
251 2 6 1 18.84 9.42 15.7 
252 2 6 1 25.12 6.28 12.56 
253 2 6 1 28.26 6.28 15.7 
254 2 6 1 28.26 9.42 12.56 
255 2 6 1 25.12 9.42 15.7 
256 2 6 1 31.4 6.28 12.56 
257 2 6 1 34.54 6.28 15.7 
258 2 6 1 34.54 9.42 12.56 
259 2 6 1 31.4 9.42 15.7 
260 2 6 1 37.68 6.28 12.56 
261 2 6 1 40.82 6.28 15.7 
262 2 6 1 40.82 9.42 12.56 
263 2 6 1 37.68 9.42 15.7 
264 2 6 1 43.96 6.28 12.56 
265 2 6 1 47.1 6.28 15.7 
266 2 6 1 47.1 9.42 12.56 
267 2 6 1 43.96 9.42 15.7 
268 3 6 1 0 0 18.84 
269 3 6 1 3.14 0 21.98 
270 2 6 1 3.14 3.14 18.84 
271 2 6 1 0 3.14 21.98 
272 3 6 1 6.28 0 18.84 
273 3 6 1 9.42 0 21.98 
274 2 6 1 9.42 3.14 18.84 
275 2 6 1 6.28 3.14 21.98 
276 3 6 1 12.56 0 18.84 
277 3 6 1 15.7 0 21.98 
278 2 6 1 15.7 3.14 18.84 
279 2 6 1 12.56 3.14 21.98 
280 3 6 1 18.84 0 18.84 
281 3 6 1 21.98 0 21.98 
282 2 6 1 21.98 3.14 18.84 
283 2 6 1 18.84 3.14 21.98 
284 3 6 1 25.12 0 18.84 
285 3 6 1 28.26 0 21.98 
286 2 6 1 28.26 3.14 18.84 
287 2 6 1 25.12 3.14 21.98 
288 3 6 1 31.4 0 18.84 
289 3 6 1 34.54 0 21.98 
290 2 6 1 34.54 3.14 18.84 
291 2 6 1 31.4 3.14 21.98 
292 3 6 1 37.68 0 18.84 
293 3 6 1 40.82 0 21.98 
294 2 6 1 40.82 3.14 18.84 
295 2 6 1 37.68 3.14 21.98 
296 3 6 1 43.96 0 18.84 
297 3 6 1 47.1 0 21.98 
298 2 6 1 47.1 3.14 18.84 
299 2 6 1 43.96 3.14 21.98 
300 2 6 1 0 6.28 18.84 
301 2 6 1 3.14 6.28 21.98 
302 2 6 1 3.14 9.42 18.84 
303 2 6 1 0 9.42 21.98 
304 2 6 1 6.28 6.28 18.84 
305 2 6 1 9.42 6.28 21.98 
306 2 6 1 9.42 9.42 18.84 
307 2 6 1 6.28 9.42 21.98 
308 2 6 1 12.56 6.28 18.84 
309 2 6 1 15.7 6.28 21.98 
310 2 6 1 15.7 9.42 18.84 
311 2 6 1 12.56 9.42 21.98 
312 2 6 1 18.84 6.28 18.84 
313 2 6 1 21.98 6.28 21.98 
314 2 6 1 21.98 9.42 18.84 
315 2 6 1 18.84 9.42 21.98 
316 2 6 1 25.12 6.28 18.84
317 2 6 1 28.26 6.28 21.98 
318 2 6 1 28.26 9.42 18.84 
319 2 6 1 25.12 9.42 21.98 
320 2 6 1 31.4 6.28 18.84 
321 2 6 1 34.54 6.28 21.98 
322 2 6 1 34.54 9.42 18.84 
323 2 6 1 31.4 9.42 21.98 
324 2 6 1 37.68 6.28 18.84 
325 2 6 1 40.82 6.28 21.98 
326 2 6 1 40.82 9.42 18.84 
327 2 6 1 37.68 9.42 21.98 
328 2 6 1 43.96 6.28 18.84 
329 2 6 1 47.1 6.28 21.98 
330 2 6 1 47.1 9.42 18.84 
331 2 6 1 43.96 9.42 21.98 
332 3 6 1 0 0 25.12 
333 3 6 1 3.14 0 28.26 
334 2 6 1 3.14 3.14 25.12 
335 2 6 1 0 3.14 28.26 
336 3 6 1 6.28 0 25.12 
337 3 6 1 9.42 0 28.26 
338 2 6 1 9.42 3.14 25.12 
339 2 6 1 6.28 3.14 28.26 
340 3 6 1 12.56 0 25.12 
341 3 6 1 15.7 0 28.26 
342 2 6 1 15.7 3.14 25.12 
343 2 6 1 12.56 3.14 28.26 
344 3 6 1 18.84 0 25.12 
345 3 6 1 21.98 0 28.26 
346 2 6 1 21.98 3.14 25.12 
347 2 6 1 18.84 3.14 28.26 
348 3 6 1 25.12 0 25.12 
349 3 6 1 28.26 0 28.26 
350 2 6 1 28.26 3.14 25.12 
351 2 6 1 25.12 3.14 28.26 
352 3 6 1 31.4 0 25.12 
353 3 6 1 34.54 0 28.26 
354 2 6 1 34.54 3.14 25.12 
355 2 6 1 31.4 3.14 28.26 
356 3 6 1 37.68 0 25.12 
357 3 6 1 40.82 0 28.26 
358 2 6 1 40.82 3.14 25.12 
359 2 6 1 37.68 3.14 28.26 
360 3 6 1 43.96 0 25.12 
361 3 6 1 47.1 0 28.26 
362 2 6 1 47.1 3.14 25.12 
363 2 6 1 43.96 3.14 28.26
364 2 6 1 0 6.28 25.12 
365 2 6 1 3.14 6.28 28.26 
366 2 6 1 3.14 9.42 25.12 
367 2 6 1 0 9.42 28.26 
368 2 6 1 6.28 6.28 25.12 
369 2 6 1 9.42 6.28 28.26 
370 2 6 1 9.42 9.42 25.12 
371 2 6 1 6.28 9.42 28.26 
372 2 6 1 12.56 6.28 25.12 
373 2 6 1 15.7 6.28 28.26 
374 2 6 1 15.7 9.42 25.12 
375 2 6 1 12.56 9.42 28.26 
376 2 6 1 18.84 6.28 25.12 
377 2 6 1 21.98 6.28 28.26 
378 2 6 1 21.98 9.42 25.12 
379 2 6 1 18.84 9.42 28.26 
380 2 6 1 25.12 6.28 25.12 
381 2 6 1 28.26 6.28 28.26 
382 2 6 1 28.26 9.42 25.12 
383 2 6 1 25.12 9.42 28.26 
384 2 6 1 31.4 6.28 25.12 
385 2 6 1 34.54 6.28 28.26 
386 2 6 1 34.54 9.42 25.12 
387 2 6 1 31.4 9.42 28.26 
388 2 6 1 37.68 6.28 25.12 
389 2 6 1 40.82 6.28 28.26 
390 2 6 1 40.82 9.42 25.12 
391 2 6 1 37.68 9.42 28.26 
392 2 6 1 43.96 6.28 25.12 
393 2 6 1 47.1 6.28 28.26 
394 2 6 1 47.1 9.42 25.12 
395 2 6 1 43.96 9.42 28.26 
396 3 6 1 0 0 31.4 
397 3 6 1 3.14 0 34.54 
398 2 6 1 3.14 3.14 31.4 
399 2 6 1 0 3.14 34.54 
400 3 6 1 6.28 0 31.4 
401 3 6 1 9.42 0 34.54 
402 2 6 1 9.42 3.14 31.4 
403 2 6 1 6.28 3.14 34.54 
404 3 6 1 12.56 0 31.4 
405 3 6 1 15.7 0 34.54 
406 2 6 1 15.7 3.14 31.4 
407 2 6 1 12.56 3.14 34.54 
408 3 6 1 18.84 0 31.4 
409 3 6 1 21.98 0 34.54 
410 2 6 1 21.98 3.14 31.4
411 2 6 1 18.84 3.14 34.54 
412 3 6 1 25.12 0 31.4 
413 3 6 1 28.26 0 34.54 
414 2 6 1 28.26 3.14 31.4 
415 2 6 1 25.12 3.14 34.54 
416 3 6 1 31.4 0 31.4 
417 3 6 1 34.54 0 34.54 
418 2 6 1 34.54 3.14 31.4 
419 2 6 1 31.4 3.14 34.54 
420 3 6 1 37.68 0 31.4 
421 3 6 1 40.82 0 34.54 
422 2 6 1 40.82 3.14 31.4 
423 2 6 1 37.68 3.14 34.54 
424 3 6 1 43.96 0 31.4 
425 3 6 1 47.1 0 34.54 
426 2 6 1 47.1 3.14 31.4 
427 2 6 1 43.96 3.14 34.54 
428 2 6 1 0 6.28 31.4 
429 2 6 1 3.14 6.28 34.54 
430 2 6 1 3.14 9.42 31.4 
431 2 6 1 0 9.42 34.54 
432 2 6 1 6.28 6.28 31.4 
433 2 6 1 9.42 6.28 34.54 
434 2 6 1 9.42 9.42 31.4 
435 2 6 1 6.28 9.42 34.54 
436 2 6 1 12.56 6.28 31.4 
437 2 6 1 15.7 6.28 34.54 
438 2 6 1 15.7 9.42 31.4 
439 2 6 1 12.56 9.42 34.54 
440 2 6 1 18.84 6.28 31.4 
441 2 6 1 21.98 6.28 34.54 
442 2 6 1 21.98 9.42 31.4 
443 2 6 1 18.84 9.42 34.54 
444 2 6 1 25.12 6.28 31.4 
445 2 6 1 28.26 6.28 34.54 
446 2 6 1 28.26 9.42 31.4 
447 2 6 1 25.12 9.42 34.54 
448 2 6 1 31.4 6.28 31.4 
449 2 6 1 34.54 6.28 34.54 
450 2 6 1 34.54 9.42 31.4 
451 2 6 1 31.4 9.42 34.54 
452 2 6 1 37.68 6.28 31.4 
453 2 6 1 40.82 6.28 34.54 
454 2 6 1 40.82 9.42 31.4 
455 2 6 1 37.68 9.42 34.54 
456 2 6 1 43.96 6.28 31.4 
457 2 6 1 47.1 6.28 34.54
458 2 6 1 47.1 9.42 31.4 
459 2 6 1 43.96 9.42 34.54 
460 3 6 1 0 0 37.68 
461 3 6 1 3.14 0 40.82 
462 2 6 1 3.14 3.14 37.68 
463 2 6 1 0 3.14 40.82 
464 3 6 1 6.28 0 37.68 
465 3 6 1 9.42 0 40.82 
466 2 6 1 9.42 3.14 37.68 
467 2 6 1 6.28 3.14 40.82 
468 3 6 1 12.56 0 37.68 
469 3 6 1 15.7 0 40.82 
470 2 6 1 15.7 3.14 37.68 
471 2 6 1 12.56 3.14 40.82 
472 3 6 1 18.84 0 37.68 
473 3 6 1 21.98 0 40.82 
474 2 6 1 21.98 3.14 37.68 
475 2 6 1 18.84 3.14 40.82 
476 3 6 1 25.12 0 37.68 
477 3 6 1 28.26 0 40.82 
478 2 6 1 28.26 3.14 37.68 
479 2 6 1 25.12 3.14 40.82 
480 3 6 1 31.4 0 37.68 
481 3 6 1 34.54 0 40.82 
482 2 6 1 34.54 3.14 37.68 
483 2 6 1 31.4 3.14 40.82 
484 3 6 1 37.68 0 37.68 
485 3 6 1 40.82 0 40.82 
486 2 6 1 40.82 3.14 37.68 
487 2 6 1 37.68 3.14 40.82 
488 3 6 1 43.96 0 37.68 
489 3 6 1 47.1 0 40.82 
490 2 6 1 47.1 3.14 37.68 
491 2 6 1 43.96 3.14 40.82 
492 2 6 1 0 6.28 37.68 
493 2 6 1 3.14 6.28 40.82 
494 2 6 1 3.14 9.42 37.68 
495 2 6 1 0 9.42 40.82 
496 2 6 1 6.28 6.28 37.68 
497 2 6 1 9.42 6.28 40.82 
498 2 6 1 9.42 9.42 37.68 
499 2 6 1 6.28 9.42 40.82 
500 2 6 1 12.56 6.28 37.68 
501 2 6 1 15.7 6.28 40.82 
502 2 6 1 15.7 9.42 37.68 
503 2 6 1 12.56 9.42 40.82 
504 2 6 1 18.84 6.28 37.68
505 2 6 1 21.98 6.28 40.82 
506 2 6 1 21.98 9.42 37.68 
507 2 6 1 18.84 9.42 40.82 
508 2 6 1 25.12 6.28 37.68 
509 2 6 1 28.26 6.28 40.82 
510 2 6 1 28.26 9.42 37.68 
511 2 6 1 25.12 9.42 40.82 
512 2 6 1 31.4 6.28 37.68 
513 2 6 1 34.54 6.28 40.82 
514 2 6 1 34.54 9.42 37.68 
515 2 6 1 31.4 9.42 40.82 
516 2 6 1 37.68 6.28 37.68 
517 2 6 1 40.82 6.28 40.82 
518 2 6 1 40.82 9.42 37.68 
519 2 6 1 37.68 9.42 40.82 
520 2 6 1 43.96 6.28 37.68 
521 2 6 1 47.1 6.28 40.82 
522 2 6 1 47.1 9.42 37.68 
523 2 6 1 43.96 9.42 40.82 
524 3 6 1 0 0 43.96 
525 3 6 1 3.14 0 47.1 
526 2 6 1 3.14 3.14 43.96 
527 2 6 1 0 3.14 47.1 
528 3 6 1 6.28 0 43.96 
529 3 6 1 9.42 0 47.1 
530 2 6 1 9.42 3.14 43.96 
531 2 6 1 6.28 3.14 47.1 
532 3 6 1 12.56 0 43.96 
533 3 6 1 15.7 0 47.1 
534 2 6 1 15.7 3.14 43.96 
535 2 6 1 12.56 3.14 47.1 
536 3 6 1 18.84 0 43.96 
537 3 6 1 21.98 0 47.1 
538 2 6 1 21.98 3.14 43.96 
539 2 6 1 18.84 3.14 47.1 
540 3 6 1 25.12 0 43.96 
541 3 6 1 28.26 0 47.1 
542 2 6 1 28.26 3.14 43.96 
543 2 6 1 25.12 3.14 47.1 
544 3 6 1 31.4 0 43.96 
545 3 6 1 34.54 0 47.1 
546 2 6 1 34.54 3.14 43.96 
547 2 6 1 31.4 3.14 47.1 
548 3 6 1 37.68 0 43.96 
549 3 6 1 40.82 0 47.1 
550 2 6 1 40.82 3.14 43.96 
551 2 6 1 37.68 3.14 47.1
552 3 6 1 43.96 0 43.96 
553 3 6 1 47.1 0 47.1 
554 2 6 1 47.1 3.14 43.96 
555 2 6 1 43.96 3.14 47.1 
556 2 6 1 0 6.28 43.96 
557 2 6 1 3.14 6.28 47.1 
558 2 6 1 3.14 9.42 43.96 
559 2 6 1 0 9.42 47.1 
560 2 6 1 6.28 6.28 43.96 
561 2 6 1 9.42 6.28 47.1 
562 2 6 1 9.42 9.42 43.96 
563 2 6 1 6.28 9.42 47.1 
564 2 6 1 12.56 6.28 43.96 
565 2 6 1 15.7 6.28 47.1 
566 2 6 1 15.7 9.42 43.96 
567 2 6 1 12.56 9.42 47.1 
568 2 6 1 18.84 6.28 43.96 
569 2 6 1 21.98 6.28 47.1 
570 2 6 1 21.98 9.42 43.96 
571 2 6 1 18.84 9.42 47.1 
572 2 6 1 25.12 6.28 43.96 
573 2 6 1 28.26 6.28 47.1 
574 2 6 1 28.26 9.42 43.96 
575 2 6 1 25.12 9.42 47.1 
576 2 6 1 31.4 6.28 43.96 
577 2 6 1 34.54 6.28 47.1 
578 2 6 1 34.54 9.42 43.96 
579 2 6 1 31.4 9.42 47.1 
580 2 6 1 37.68 6.28 43.96 
581 2 6 1 40.82 6.28 47.1 
582 2 6 1 40.82 9.42 43.96 
583 2 6 1 37.68 9.42 47.1 
584 2 6 1 43.96 6.28 43.96 
585 2 6 1 47.1 6.28 47.1 
586 2 6 1 47.1 9.42 43.96 
587 2 6 1 43.96 9.42 47.1 
588 2 7 -1 0 3.14 0 
589 3 7 -1 0 0 3.14 
590 3 7 -1 3.14 0 0 
591 2 7 -1 3.14 3.14 3.14 
592 2 7 -1 6.28 3.14 0 
593 3 7 -1 6.28 0 3.14 
594 3 7 -1 9.42 0 0 
595 2 7 -1 9.42 3.14 3.14 
596 2 7 -1 12.56 3.14 0 
597 3 7 -1 12.56 0 3.14 
598 3 7 -1 15.7 0 0
599 2 7 -1 15.7 3.14 3.14 
600 2 7 -1 18.84 3.14 0 
601 3 7 -1 18.84 0 3.14 
602 3 7 -1 21.98 0 0 
603 2 7 -1 21.98 3.14 3.14 
604 2 7 -1 25.12 3.14 0 
605 3 7 -1 25.12 0 3.14 
606 3 7 -1 28.26 0 0 
607 2 7 -1 28.26 3.14 3.14 
608 2 7 -1 31.4 3.14 0 
609 3 7 -1 31.4 0 3.14 
610 3 7 -1 34.54 0 0 
611 2 7 -1 34.54 3.14 3.14 
612 2 7 -1 37.68 3.14 0 
613 3 7 -1 37.68 0 3.14 
614 3 7 -1 40.82 0 0 
615 2 7 -1 40.82 3.14 3.14 
616 2 7 -1 43.96 3.14 0 
617 3 7 -1 43.96 0 3.14 
618 3 7 -1 47.1 0 0 
619 2 7 -1 47.1 3.14 3.14 
620 2 7 -1 0 9.42 0 
621 2 7 -1 0 6.28 3.14 
622 2 7 -1 3.14 6.28 0 
623 2 7 -1 3.14 9.42 3.14 
624 2 7 -1 6.28 9.42 0 
625 2 7 -1 6.28 6.28 3.14 
626 2 7 -1 9.42 6.28 0 
627 2 7 -1 9.42 9.42 3.14 
628 2 7 -1 12.56 9.42 0 
629 2 7 -1 12.56 6.28 3.14 
630 2 7 -1 15.7 6.28 0 
631 2 7 -1 15.7 9.42 3.14 
632 2 7 -1 18.84 9.42 0 
633 2 7 -1 18.84 6.28 3.14 
634 2 7 -1 21.98 6.28 0 
635 2 7 -1 21.98 9.42 3.14 
636 2 7 -1 25.12 9.42 0 
637 2 7 -1 25.12 6.28 3.14 
638 2 7 -1 28.26 6.28 0 
639 2 7 -1 28.26 9.42 3.14 
640 2 7 -1 31.4 9.42 0 
641 2 7 -1 31.4 6.28 3.14 
642 2 7 -1 34.54 6.28 0 
643 2 7 -1 34.54 9.42 3.14 
644 2 7 -1 37.68 9.42 0 
645 2 7 -1 37.68 6.28 3.14 
646 2 7 -1 40.82 6.28 0 
647 2 7 -1 40.82 9.42 3.14 
648 2 7 -1 43.96 9.42 0 
649 2 7 -1 43.96 6.28 3.14 
650 2 7 -1 47.1 6.28 0 
651 2 7 -1 47.1 9.42 3.14 
652 2 7 -1 0 3.14 6.28 
653 3 7 -1 0 0 9.42 
654 3 7 -1 3.14 0 6.28 
655 2 7 -1 3.14 3.14 9.42 
656 2 7 -1 6.28 3.14 6.28 
657 3 7 -1 6.28 0 9.42 
658 3 7 -1 9.42 0 6.28 
659 2 7 -1 9.42 3.14 9.42 
660 2 7 -1 12.56 3.14 6.28 
661 3 7 -1 12.56 0 9.42 
662 3 7 -1 15.7 0 6.28 
663 2 7 -1 15.7 3.14 9.42 
664 2 7 -1 18.84 3.14 6.28 
665 3 7 -1 18.84 0 9.42 
666 3 7 -1 21.98 0 6.28 
667 2 7 -1 21.98 3.14 9.42 
668 2 7 -1 25.12 3.14 6.28 
669 3 7 -1 25.12 0 9.42 
670 3 7 -1 28.26 0 6.28 
671 2 7 -1 28.26 3.14 9.42 
672 2 7 -1 31.4 3.14 6.28 
673 3 7 -1 31.4 0 9.42 
674 3 7 -1 34.54 0 6.28 
675 2 7 -1 34.54 3.14 9.42 
676 2 7 -1 37.68 3.14 6.28 
677 3 7 -1 37.68 0 9.42 
678 3 7 -1 40.82 0 6.28 
679 2 7 -1 40.82 3.14 9.42 
680 2 7 -1 43.96 3.14 6.28 
681 3 7 -1 43.96 0 9.42 
682 3 7 -1 47.1 0 6.28 
683 2 7 -1 47.1 3.14 9.42 
684 2 7 -1 0 9.42 6.28 
685 2 7 -1 0 6.28 9.42 
686 2 7 -1 3.14 6.28 6.28 
687 2 7 -1 3.14 9.42 9.42 
688 2 7 -1 6.28 9.42 6.28 
689 2 7 -1 6.28 6.28 9.42 
690 2 7 -1 9.42 6.28 6.28 
691 2 7 -1 9.42 9.42 9.42 
692 2 7 -1 12.56 9.42 6.28 
693 2 7 -1 12.56 6.28 9.42 
694 2 7 -1 15.7 6.28 6.28 
695 2 7 -1 15.7 9.42 9.42 
696 2 7 -1 18.84 9.42 6.28 
697 2 7 -1 18.84 6.28 9.42 
698 2 7 -1 21.98 6.28 6.28 
699 2 7 -1 21.98 9.42 9.42 
700 2 7 -1 25.12 9.42 6.28 
701 2 7 -1 25.12 6.28 9.42 
702 2 7 -1 28.26 6.28 6.28 
703 2 7 -1 28.26 9.42 9.42 
704 2 7 -1 31.4 9.42 6.28 
705 2 7 -1 31.4 6.28 9.42 
706 2 7 -1 34.54 6.28 6.28 
707 2 7 -1 34.54 9.42 9.42 
708 2 7 -1 37.68 9.42 6.28 
709 2 7 -1 37.68 6.28 9.42 
710 2 7 -1 40.82 6.28 6.28 
711 2 7 -1 40.82 9.42 9.42 
712 2 7 -1 43.96 9.42 6.28 
713 2 7 -1 43.96 6.28 9.42 
714 2 7 -1 47.1 6.28 6.28 
715 2 7 -1 47.1 9.42 9.42 
716 2 7 -1 0 3.14 12.56 
717 3 7 -1 0 0 15.7 
718 3 7 -1 3.14 0 12.56 
719 2 7 -1 3.14 3.14 15.7 
720 2 7 -1 6.28 3.14 12.56 
721 3 7 -1 6.28 0 15.7 
722 3 7 -1 9.42 0 12.56 
723 2 7 -1 9.42 3.14 15.7 
724 2 7 -1 12.56 3.14 12.56 
725 3 7 -1 12.56 0 15.7 
726 3 7 -1 15.7 0 12.56 
727 2 7 -1 15.7 3.14 15.7 
728 2 7 -1 18.84 3.14 12.56 
729 3 7 -1 18.84 0 15.7 
730 3 7 -1 21.98 0 12.56 
731 2 7 -1 21.98 3.14 15.7 
732 2 7 -1 25.12 3.14 12.56 
733 3 7 -1 25.12 0 15.7 
734 3 7 -1 28.26 0 12.56 
735 2 7 -1 28.26 3.14 15.7 
736 2 7 -1 31.4 3.14 12.56 
737 3 7 -1 31.4 0 15.7 
738 3 7 -1 34.54 0 12.56 
739 2 7 -1 34.54 3.14 15.7
740 2 7 -1 37.68 3.14 12.56 
741 3 7 -1 37.68 0 15.7 
742 3 7 -1 40.82 0 12.56 
743 2 7 -1 40.82 3.14 15.7 
744 2 7 -1 43.96 3.14 12.56 
745 3 7 -1 43.96 0 15.7 
746 3 7 -1 47.1 0 12.56 
747 2 7 -1 47.1 3.14 15.7 
748 2 7 -1 0 9.42 12.56 
749 2 7 -1 0 6.28 15.7 
750 2 7 -1 3.14 6.28 12.56 
751 2 7 -1 3.14 9.42 15.7 
752 2 7 -1 6.28 9.42 12.56 
753 2 7 -1 6.28 6.28 15.7 
754 2 7 -1 9.42 6.28 12.56 
755 2 7 -1 9.42 9.42 15.7 
756 2 7 -1 12.56 9.42 12.56 
757 2 7 -1 12.56 6.28 15.7 
758 2 7 -1 15.7 6.28 12.56 
759 2 7 -1 15.7 9.42 15.7 
760 2 7 -1 18.84 9.42 12.56 
761 2 7 -1 18.84 6.28 15.7 
762 2 7 -1 21.98 6.28 12.56 
763 2 7 -1 21.98 9.42 15.7 
764 2 7 -1 25.12 9.42 12.56 
765 2 7 -1 25.12 6.28 15.7 
766 2 7 -1 28.26 6.28 12.56 
767 2 7 -1 28.26 9.42 15.7 
768 2 7 -1 31.4 9.42 12.56 
769 2 7 -1 31.4 6.28 15.7 
770 2 7 -1 34.54 6.28 12.56 
771 2 7 -1 34.54 9.42 15.7 
772 2 7 -1 37.68 9.42 12.56 
773 2 7 -1 37.68 6.28 15.7 
774 2 7 -1 40.82 6.28 12.56 
775 2 7 -1 40.82 9.42 15.7 
776 2 7 -1 43.96 9.42 12.56 
777 2 7 -1 43.96 6.28 15.7 
778 2 7 -1 47.1 6.28 12.56 
779 2 7 -1 47.1 9.42 15.7 
780 2 7 -1 0 3.14 18.84 
781 3 7 -1 0 0 21.98 
782 3 7 -1 3.14 0 18.84 
783 2 7 -1 3.14 3.14 21.98 
784 2 7 -1 6.28 3.14 18.84 
785 3 7 -1 6.28 0 21.98 
786 3 7 -1 9.42 0 18.84 
787 2 7 -1 9.42 3.14 21.98 
788 2 7 -1 12.56 3.14 18.84 
789 3 7 -1 12.56 0 21.98 
790 3 7 -1 15.7 0 18.84 
791 2 7 -1 15.7 3.14 21.98 
792 2 7 -1 18.84 3.14 18.84 
793 3 7 -1 18.84 0 21.98 
794 3 7 -1 21.98 0 18.84 
795 2 7 -1 21.98 3.14 21.98 
796 2 7 -1 25.12 3.14 18.84 
797 3 7 -1 25.12 0 21.98 
798 3 7 -1 28.26 0 18.84 
799 2 7 -1 28.26 3.14 21.98 
800 2 7 -1 31.4 3.14 18.84 
801 3 7 -1 31.4 0 21.98 
802 3 7 -1 34.54 0 18.84 
803 2 7 -1 34.54 3.14 21.98 
804 2 7 -1 37.68 3.14 18.84 
805 3 7 -1 37.68 0 21.98 
806 3 7 -1 40.82 0 18.84 
807 2 7 -1 40.82 3.14 21.98 
808 2 7 -1 43.96 3.14 18.84 
809 3 7 -1 43.96 0 21.98 
810 3 7 -1 47.1 0 18.84 
811 2 7 -1 47.1 3.14 21.98 
812 2 7 -1 0 9.42 18.84 
813 2 7 -1 0 6.28 21.98 
814 2 7 -1 3.14 6.28 18.84 
815 2 7 -1 3.14 9.42 21.98 
816 2 7 -1 6.28 9.42 18.84 
817 2 7 -1 6.28 6.28 21.98 
818 2 7 -1 9.42 6.28 18.84 
819 2 7 -1 9.42 9.42 21.98 
820 2 7 -1 12.56 9.42 18.84 
821 2 7 -1 12.56 6.28 21.98 
822 2 7 -1 15.7 6.28 18.84 
823 2 7 -1 15.7 9.42 21.98 
824 2 7 -1 18.84 9.42 18.84 
825 2 7 -1 18.84 6.28 21.98 
826 2 7 -1 21.98 6.28 18.84 
827 2 7 -1 21.98 9.42 21.98 
828 2 7 -1 25.12 9.42 18.84 
829 2 7 -1 25.12 6.28 21.98 
830 2 7 -1 28.26 6.28 18.84 
831 2 7 -1 28.26 9.42 21.98 
832 2 7 -1 31.4 9.42 18.84 
833 2 7 -1 31.4 6.28 21.98 
834 2 7 -1 34.54 6.28 18.84 
835 2 7 -1 34.54 9.42 21.98 
836 2 7 -1 37.68 9.42 18.84 
837 2 7 -1 37.68 6.28 21.98 
838 2 7 -1 40.82 6.28 18.84 
839 2 7 -1 40.82 9.42 21.98 
840 2 7 -1 43.96 9.42 18.84 
841 2 7 -1 43.96 6.28 21.98 
842 2 7 -1 47.1 6.28 18.84 
843 2 7 -1 47.1 9.42 21.98 
844 2 7 -1 0 3.14 25.12 
845 3 7 -1 0 0 28.26 
846 3 7 -1 3.14 0 25.12 
847 2 7 -1 3.14 3.14 28.26 
848 2 7 -1 6.28 3.14 25.12 
849 3 7 -1 6.28 0 28.26 
850 3 7 -1 9.42 0 25.12 
851 2 7 -1 9.42 3.14 28.26 
852 2 7 -1 12.56 3.14 25.12 
853 3 7 -1 12.56 0 28.26 
854 3 7 -1 15.7 0 25.12 
855 2 7 -1 15.7 3.14 28.26 
856 2 7 -1 18.84 3.14 25.12 
857 3 7 -1 18.84 0 28.26 
858 3 7 -1 21.98 0 25.12 
859 2 7 -1 21.98 3.14 28.26 
860 2 7 -1 25.12 3.14 25.12 
861 3 7 -1 25.12 0 28.26 
862 3 7 -1 28.26 0 25.12 
863 2 7 -1 28.26 3.14 28.26 
864 2 7 -1 31.4 3.14 25.12 
865 3 7 -1 31.4 0 28.26 
866 3 7 -1 34.54 0 25.12 
867 2 7 -1 34.54 3.14 28.26 
868 2 7 -1 37.68 3.14 25.12 
869 3 7 -1 37.68 0 28.26 
870 3 7 -1 40.82 0 25.12 
871 2 7 -1 40.82 3.14 28.26 
872 2 7 -1 43.96 3.14 25.12 
873 3 7 -1 43.96 0 28.26 
874 3 7 -1 47.1 0 25.12 
875 2 7 -1 47.1 3.14 28.26 
876 2 7 -1 0 9.42 25.12 
877 2 7 -1 0 6.28 28.26 
878 2 7 -1 3.14 6.28 25.12 
879 2 7 -1 3.14 9.42 28.26 
880 2 7 -1 6.28 9.42 25.12
881 2 7 -1 6.28 6.28 28.26 
882 2 7 -1 9.42 6.28 25.12 
883 2 7 -1 9.42 9.42 28.26 
884 2 7 -1 12.56 9.42 25.12 
885 2 7 -1 12.56 6.28 28.26 
886 2 7 -1 15.7 6.28 25.12 
887 2 7 -1 15.7 9.42 28.26 
888 2 7 -1 18.84 9.42 25.12 
889 2 7 -1 18.84 6.28 28.26 
890 2 7 -1 21.98 6.28 25.12 
891 2 7 -1 21.98 9.42 28.26 
892 2 7 -1 25.12 9.42 25.12 
893 2 7 -1 25.12 6.28 28.26 
894 2 7 -1 28.26 6.28 25.12 
895 2 7 -1 28.26 9.42 28.26 
896 2 7 -1 31.4 9.42 25.12 
897 2 7 -1 31.4 6.28 28.26 
898 2 7 -1 34.54 6.28 25.12 
899 2 7 -1 34.54 9.42 28.26 
900 2 7 -1 37.68 9.42 25.12 
901 2 7 -1 37.68 6.28 28.26 
902 2 7 -1 40.82 6.28 25.12 
903 2 7 -1 40.82 9.42 28.26 
904 2 7 -1 43.96 9.42 25.12 
905 2 7 -1 43.96 6.28 28.26 
906 2 7 -1 47.1 6.28 25.12 
907 2 7 -1 47.1 9.42 28.26 
908 2 7 -1 0 3.14 31.4 
909 3 7 -1 0 0 34.54 
910 3 7 -1 3.14 0 31.4 
911 2 7 -1 3.14 3.14 34.54 
912 2 7 -1 6.28 3.14 31.4 
913 3 7 -1 6.28 0 34.54 
914 3 7 -1 9.42 0 31.4 
915 2 7 -1 9.42 3.14 34.54 
916 2 7 -1 12.56 3.14 31.4 
917 3 7 -1 12.56 0 34.54 
918 3 7 -1 15.7 0 31.4 
919 2 7 -1 15.7 3.14 34.54 
920 2 7 -1 18.84 3.14 31.4 
921 3 7 -1 18.84 0 34.54 
922 3 7 -1 21.98 0 31.4 
923 2 7 -1 21.98 3.14 34.54 
924 2 7 -1 25.12 3.14 31.4 
925 3 7 -1 25.12 0 34.54 
926 3 7 -1 28.26 0 31.4 
927 2 7 -1 28.26 3.14 34.54
928 2 7 -1 31.4 3.14 31.4 
929 3 7 -1 31.4 0 34.54 
930 3 7 -1 34.54 0 31.4 
931 2 7 -1 34.54 3.14 34.54 
932 2 7 -1 37.68 3.14 31.4 
933 3 7 -1 37.68 0 34.54 
934 3 7 -1 40.82 0 31.4 
935 2 7 -1 40.82 3.14 34.54 
936 2 7 -1 43.96 3.14 31.4 
937 3 7 -1 43.96 0 34.54 
938 3 7 -1 47.1 0 31.4 
939 2 7 -1 47.1 3.14 34.54 
940 2 7 -1 0 9.42 31.4 
941 2 7 -1 0 6.28 34.54 
942 2 7 -1 3.14 6.28 31.4 
943 2 7 -1 3.14 9.42 34.54 
944 2 7 -1 6.28 9.42 31.4 
945 2 7 -1 6.28 6.28 34.54 
946 2 7 -1 9.42 6.28 31.4 
947 2 7 -1 9.42 9.42 34.54 
948 2 7 -1 12.56 9.42 31.4 
949 2 7 -1 12.56 6.28 34.54 
950 2 7 -1 15.7 6.28 31.4 
951 2 7 -1 15.7 9.42 34.54 
952 2 7 -1 18.84 9.42 31.4 
953 2 7 -1 18.84 6.28 34.54 
954 2 7 -1 21.98 6.28 31.4 
955 2 7 -1 21.98 9.42 34.54 
956 2 7 -1 25.12 9.42 31.4 
957 2 7 -1 25.12 6.28 34.54 
958 2 7 -1 28.26 6.28 31.4 
959 2 7 -1 28.26 9.42 34.54 
960 2 7 -1 31.4 9.42 31.4 
961 2 7 -1 31.4 6.28 34.54 
962 2 7 -1 34.54 6.28 31.4 
963 2 7 -1 34.54 9.42 34.54 
964 2 7 -1 37.68 9.42 31.4 
965 2 7 -1 37.68 6.28 34.54 
966 2 7 -1 40.82 6.28 31.4 
967 2 7 -1 40.82 9.42 34.54 
968 2 7 -1 43.96 9.42 31.4 
969 2 7 -1 43.96 6.28 34.54 
970 2 7 -1 47.1 6.28 31.4 
971 2 7 -1 47.1 9.42 34.54 
972 2 7 -1 0 3.14 37.68 
973 3 7 -1 0 0 40.82 
974 3 7 -1 3.14 0 37.68
975 2 7 -1 3.14 3.14 40.82 
976 2 7 -1 6.28 3.14 37.68 
977 3 7 -1 6.28 0 40.82 
978 3 7 -1 9.42 0 37.68 
979 2 7 -1 9.42 3.14 40.82 
980 2 7 -1 12.56 3.14 37.68 
981 3 7 -1 12.56 0 40.82 
982 3 7 -1 15.7 0 37.68 
983 2 7 -1 15.7 3.14 40.82 
984 2 7 -1 18.84 3.14 37.68 
985 3 7 -1 18.84 0 40.82 
986 3 7 -1 21.98 0 37.68 
987 2 7 -1 21.98 3.14 40.82 
988 2 7 -1 25.12 3.14 37.68 
989 3 7 -1 25.12 0 40.82 
990 3 7 -1 28.26 0 37.68 
991 2 7 -1 28.26 3.14 40.82 
992 2 7 -1 31.4 3.14 37.68 
993 3 7 -1 31.4 0 40.82 
994 3 7 -1 34.54 0 37.68 
995 2 7 -1 34.54 3.14 40.82 
996 2 7 -1 37.68 3.14 37.68 
997 3 7 -1 37.68 0 40.82 
998 3 7 -1 40.82 0 37.68 
999 2 7 -1 40.82 3.14 40.82 
1000 2 7 -1 43.96 3.14 37.68 
1001 3 7 -1 43.96 0 40.82 
1002 3 7 -1 47.1 0 37.68 
1003 2 7 -1 47.1 3.14 40.82 
1004 2 7 -1 0 9.42 37.68 
1005 2 7 -1 0 6.28 40.82 
1006 2 7 -1 3.14 6.28 37.68 
1007 2 7 -1 3.14 9.42 40.82 
1008 2 7 -1 6.28 9.42 37.68 
1009 2 7 -1 6.28 6.28 40.82 
1010 2 7 -1 9.42 6.28 37.68 
1011 2 7 -1 9.42 9.42 40.82 
1012 2 7 -1 12.56 9.42 37.68 
1013 2 7 -1 12.56 6.28 40.82 
1014 2 7 -1 15.7 6.28 37.68 
1015 2 7 -1 15.7 9.42 40.82 
1016 2 7 -1 18.84 9.42 37.68 
1017 2 7 -1 18.84 6.28 40.82 
1018 2 7 -1 21.98 6.28 37.68 
1019 2 7 -1 21.98 9.42 40.82 
1020 2 7 -1 25.12 9.42 37.68 
1021 2 7 -1 25.12 6.28 40.82 
1022 2 7 -1 28.26 6.28 37.68 
1023 2 7 -1 28.26 9.42 40.82 
1024 2 7 -1 31.4 9.42 37.68 
1025 2 7 -1 31.4 6.28 40.82 
1026 2 7 -1 34.54 6.28 37.68 
1027 2 7 -1 34.54 9.42 40.82 
1028 2 7 -1 37.68 9.42 37.68 
1029 2 7 -1 37.68 6.28 40.82 
1030 2 7 -1 40.82 6.28 37.68 
1031 2 7 -1 40.82 9.42 40.82 
1032 2 7 -1 43.96 9.42 37.68 
1033 2 7 -1 43.96 6.28 40.82 
1034 2 7 -1 47.1 6.28 37.68 
1035 2 7 -1 47.1 9.42 40.82 
1036 2 7 -1 0 3.14 43.96 
1037 3 7 -1 0 0 47.1 
1038 3 7 -1 3.14 0 43.96 
1039 2 7 -1 3.14 3.14 47.1 
1040 2 7 -1 6.28 3.14 43.96 
1041 3 7 -1 6.28 0 47.1 
1042 3 7 -1 9.42 0 43.96 
1043 2 7 -1 9.42 3.14 47.1 
1044 2 7 -1 12.56 3.14 43.96 
1045 3 7 -1 12.56 0 47.1 
1046 3 7 -1 15.7 0 43.96 
1047 2 7 -1 15.7 3.14 47.1 
1048 2 7 -1 18.84 3.14 43.96 
1049 3 7 -1 18.84 0 47.1 
1050 3 7 -1 21.98 0 43.96 
1051 2 7 -1 21.98 3.14 47.1 
1052 2 7 -1 25.12 3.14 43.96 
1053 3 7 -1 25.12 0 47.1 
1054 3 7 -1 28.26 0 43.96 
1055 2 7 -1 28.26 3.14 47.1 
1056 2 7 -1 31.4 3.14 43.96 
1057 3 7 -1 31.4 0 47.1 
1058 3 7 -1 34.54 0 43.96 