    2936
 i =        1, E =      -532.7005644654
  C        18.9864109805       16.7617328883       15.8949511503
  C        13.9956826983       16.8242471539       15.9804411800
  C        15.2364643014       16.1078282514       15.9745756985
  C        15.2357448256       14.6473289673       15.9864227443
  C        13.9938824049       13.9324282122       15.9878506357
  C        12.7293920388       14.6630784872       15.9883136499
  C        12.7302152836       16.0955536964       15.9886733713
  C        11.5102781560       16.8086603387       15.9846567043
  C        13.9882382674       18.2374601158       15.9621931457
  C        12.7229554906       18.9820960977       15.9762921436
  C        11.4979441995       18.2760907823       15.9826652611
  C        10.3048794164       16.0714553349       15.9767230025
  C        10.3039263653       14.6907730871       15.9764910446
  C        11.5083369622       13.9519443043       15.9825255424
  C        11.4938369786       12.4846092642       15.9671095009
  C        12.7179250066       11.7768637082       15.9654012462
  C        13.9845372675       12.5191518975       15.9809787164
  C        16.4632092513       13.9466084569       15.9843792808
  C        16.4237880148       12.5338472470       15.9765132288
  C        15.2267135926       11.8448124603       15.9737869840
  C        17.7417160446       16.0825490880       15.9385830424
  C        17.7416000545       14.6686793487       15.9726231694
  C        16.4265668416       18.2191217729       15.8989726944
  C        15.2303803296       18.9096744130       15.9097413314
  C        16.4645849338       16.8067667078       15.9411646328
  C        12.6896587190       20.4001363892       15.9722556614
  C        11.4930417427       21.0985264032       15.9709125757
  C        10.2761739398       20.3963076911       15.9711175275
  C        10.2848482331       19.0110080247       15.9773687638
  C        10.2798408846       11.7519773034       15.9327476563
  C        10.2700372693       10.3672253765       15.8956560439
  C        11.4861430649        9.6635454393       15.8932781085
  C        12.6836388981       10.3593790346       15.9283023521
  C        18.9861373302       13.9877236943       15.9773368475
  C        20.1903117043       14.6719052545       15.9374669305
  C        20.1903814579       16.0759866986       15.8922235248
  H        11.4907524899        8.5764077948       15.8536721495
  H         9.3246921091        9.8297749478       15.8577330875
  H        13.6092344952        9.7888635318       15.9173446337
  H        21.1295875339       14.1230131883       15.9324754046
  H        21.1293472674       16.6234324272       15.8472166350
  H        19.0153451716       17.8475538749       15.8530220527
  H        13.6157844918       20.9697068469       15.9598435538
  H        11.4989448005       22.1863610017       15.9558126268
  H         9.3311387716       20.9350697904       15.9551189295
  H         9.3254299175       12.2730591678       15.9243386352
  H        19.0147248322       12.9013650062       16.0055044346
  H         9.3298863154       18.4913192822       15.9669443457
  H        13.8603134114       15.7115032769       20.1031075181
  H        14.4482451210       15.2336513762       20.0875569124
  H         9.3459254508       16.5821125894       15.9594381665
  H         9.3443086992       14.1813584479       15.9593025127
  H        17.3448109913       11.9573123483       15.9571550766
  H        15.2641168518       10.7590030796       15.9541702524
  H        17.3476137064       18.7937407651       15.8497716577
  H        15.2679978651       19.9946626947       15.8656926162
 CU         0.0092274386       -0.0047594577       -5.6567129312
 CU         2.5569336402       -0.0043597794       -5.6569090394
 CU         5.1047189451       -0.0038117710       -5.6572563313
 CU         7.6525863724       -0.0031963842       -5.6577225881
 CU        10.2005311794       -0.0026472023       -5.6581844986
 CU        12.7485285648       -0.0023064420       -5.6584908767
 CU        15.2965393164       -0.0022597403       -5.6585495471
 CU        17.8445166639       -0.0024898073       -5.6583618182
 CU        20.3924216876       -0.0029063251       -5.6580055649
 CU        22.9402343599       -0.0034063212       -5.6575858582
 CU        25.4879506086       -0.0039116045       -5.6571930301
 CU        28.0355839781       -0.0043604255       -5.6569086037
 CU        30.5831601570       -0.0047070515       -5.6567649613
 CU        33.1307074636       -0.0049320242       -5.6567052861
 CU        35.6782521529       -0.0050323039       -5.6566606431
 CU        38.2258250068       -0.0049835986       -5.6566422814
 CU         1.2827110338        2.2015882186       -5.6572343016
 CU         3.8304439312        2.2020165860       -5.6576314470
 CU         6.3783258646        2.2025761216       -5.6581206608
 CU         8.9263350481        2.2031549193       -5.6586193591
 CU        11.4744335468        2.2036057737       -5.6589979226
 CU        14.0225661331        2.2038078445       -5.6591435774
 CU        16.5706727878        2.2037240913       -5.6590157270
 CU        19.1187046756        2.2034131086       -5.6586707605
 CU        21.6666270513        2.2029786030       -5.6581997443
 CU        24.2144173751        2.2025108244       -5.6576917361
 CU        26.7620734864        2.2020748004       -5.6572542145
 CU        29.3096135991        2.2017213354       -5.6569725994
 CU        31.8570691834        2.2014723318       -5.6568454895
 CU        34.4044792740        2.2013187497       -5.6568093291
 CU        36.9518885346        2.2012615813       -5.6568372892
 CU        39.4993556842        2.2013379425       -5.6569661669
 CU         0.0085812433        4.4077198296       -5.6575285684
 CU         2.5561413170        4.4079661018       -5.6581340208
 CU         5.1039300096        4.4083823540       -5.6588350915
 CU         7.6519428582        4.4089059247       -5.6595150888
 CU        10.2001352081        4.4094102339       -5.6600542657
 CU        12.7484271885        4.4097485485       -5.6603135160
 CU        15.2967235296        4.4098210350       -5.6602206411
 CU        17.8449378759        4.4096387394       -5.6598266466
 CU        20.3930086978        4.4092943065       -5.6592474257
 CU        22.9409064923        4.4088886055       -5.6585821153
 CU        25.4886253315        4.4084947785       -5.6579377401
 CU        28.0361756909        4.4081673560       -5.6574234274
 CU        30.5835816295        4.4079338398       -5.6570926106
 CU        33.1308910867        4.4077781429       -5.6569357583
 CU        35.6781539042        4.4076771896       -5.6569369755
 CU        38.2254340328        4.4076408524       -5.6571215896
 CU         1.2820474259        6.6141734369       -5.6583605296
 CU         3.8296105045        6.6143959672       -5.6594216938
 CU         6.3774700985        6.6147692547       -5.6605374982
 CU         8.9256330105        6.6152214770       -5.6614986261
 CU        11.4740344327        6.6156240739       -5.6620848949
 CU        14.0225495099        6.6158325673       -5.6621479852
 CU        16.5710071999        6.6157890303       -5.6617100766
 CU        19.1192881542        6.6155539677       -5.6609230200
 CU        21.6673424605        6.6152279874       -5.6599835547
 CU        24.2151632738        6.6148965349       -5.6590479812
 CU        26.7627637630        6.6146194024       -5.6582213550
 CU        29.3101682326        6.6144280184       -5.6575725949
 CU        31.8574297437        6.6143063662       -5.6571438108
 CU        34.4046021396        6.6142164192       -5.6569728051
 CU        36.9517502238        6.6141408799       -5.6570910977
 CU        39.4989465039        6.6141063596       -5.6575494553
 CU         0.0082953541        8.8206485833       -5.6581460525
 CU         2.5556266491        8.8207128399       -5.6594161352
 CU         5.1032199321        8.8209187194       -5.6609973190
 CU         7.6511667837        8.8212456545       -5.6626199381
 CU        10.1994839658        8.8216104178       -5.6639042294
 CU        12.7481009300        8.8218789999       -5.6644916731
 CU        15.2967986855        8.8219506826       -5.6642535968
 CU        17.8453395252        8.8218210754       -5.6633176390
 CU        20.3936053387        8.8215747401       -5.6620136709
 CU        22.9415764548        8.8213088475       -5.6606611243
 CU        25.4892662991        8.8210924336       -5.6594124272
 CU        28.0367083058        8.8209525982       -5.6583486436
 CU        30.5839717416        8.8208757164       -5.6575405269
 CU        33.1311239406        8.8208197401       -5.6570651558
 CU        35.6782281268        8.8207533057       -5.6569824716
 CU        38.2253415272        8.8206822307       -5.6573306254
 CU         1.2820184168       11.0272645519       -5.6588882009
 CU         3.8293892528       11.0273587495       -5.6606074962
 CU         6.3770473552       11.0275786517       -5.6627342798
 CU         8.9251089499       11.0278786017       -5.6648503982
 CU        11.4735834471       11.0281517368       -5.6663563609
 CU        14.0223392526       11.0282820454       -5.6667803005
 CU        16.5710913777       11.0282242231       -5.6660651285
 CU        19.1195910068       11.0280300653       -5.6645327264
 CU        21.6677468474       11.0278097952       -5.6627022444
 CU        24.2155603965       11.0276361140       -5.6609273246
 CU        26.7630786704       11.0275332332       -5.6593718691
 CU        29.3103872927       11.0274839463       -5.6581380020
 CU        31.8575818083       11.0274488300       -5.6573133293
 CU        34.4047271444       11.0273986098       -5.6569486678
 CU        36.9518629232       11.0273319125       -5.6570783655
 CU        39.4990221728       11.0272730242       -5.6577149747
 CU         0.0086189373       13.2339101116       -5.6582202918
 CU         2.5559171957       13.2339647355       -5.6596981576
 CU         5.1033698045       13.2341304322       -5.6618438105
 CU         7.6511361294       13.2344065890       -5.6644484749
 CU        10.1993211410       13.2347156110       -5.6668528188
 CU        12.7478968491       13.2349156417       -5.6682537843
 CU        15.2966564229       13.2349063805       -5.6682341752
 CU        17.8453012064       13.2347269668       -5.6669196388
 CU        20.3936182508       13.2344986574       -5.6648241809
 CU        22.9415720929       13.2343147030       -5.6625534183
 CU        25.4891995137       13.2342024177       -5.6605004903
 CU        28.0365977535       13.2341410539       -5.6588612329
 CU        30.5838862090       13.2340920034       -5.6577276936
 CU        33.1311342056       13.2340335031       -5.6570970562
 CU        35.6783687748       13.2339713903       -5.6569632058
 CU        38.2256017371       13.2339242045       -5.6573367108
 CU         1.2825805329       15.4406032279       -5.6587597153
 CU         3.8299789043       15.4407562969       -5.6604979396
 CU         6.3775538003       15.4410377804       -5.6629856925
 CU         8.9254471837       15.4414295672       -5.6658160397
 CU        11.4737189646       15.4417730007       -5.6680844330
 CU        14.0222773499       15.4418816248       -5.6689872742
 CU        16.5708768763       15.4417305940       -5.6683276299
 CU        19.1192625744       15.4414494820       -5.6664325018
 CU        21.6673265385       15.4411743022       -5.6639585184
 CU        24.2150773921       15.4409813853       -5.6615657344
 CU        26.7626083622       15.4408504971       -5.6596244417
 CU        29.3100290839       15.4407496630       -5.6582650752
 CU        31.8574103834       15.4406544853       -5.6574331255
 CU        34.4047731664       15.4405718176       -5.6570646127
 CU        36.9521237114       15.4405313294       -5.6571582220
 CU        39.4994645593       15.4405408926       -5.6577100501
 CU         0.0091835467       17.6471946044       -5.6581059168
 CU         2.5566375944       17.6473495472       -5.6592817102
 CU         5.1041608146       17.6476381696       -5.6612031719
 CU         7.6518596360       17.6480953888       -5.6638002539
 CU        10.1998484605       17.6486207399       -5.6664449988
 CU        12.7481228778       17.6489430857       -5.6681454717
 CU        15.2965211806       17.6489208328       -5.6683100291
 CU        17.8448445921       17.6486278179       -5.6670202451
 CU        20.3929473755       17.6482272395       -5.6647907264
 CU        22.9408018528       17.6478733576       -5.6623762437
 CU        25.4884727882       17.6476134770       -5.6603297377
 CU        28.0360443915       17.6474229185       -5.6588574940
 CU        30.5835713982       17.6472727965       -5.6578962724
 CU        33.1310651293       17.6471525901       -5.6573366540
 CU        35.6785289763       17.6470907795       -5.6571834336
 CU        38.2259736917       17.6471103886       -5.6574448709
 CU         1.2831838359       19.8538768362       -5.6584714815
 CU         3.8307422901       19.8541482182       -5.6597334346
 CU         6.3783655469       19.8546150987       -5.6616834484
 CU         8.9261535973       19.8552553585       -5.6640944946
 CU        11.4741757436       19.8558211545       -5.6661723438
 CU        14.0223566248       19.8560193482       -5.6670575536
 CU        16.5705416207       19.8558328317       -5.6665212078
 CU        19.1186089977       19.8553781619       -5.6648736358
 CU        21.6665119963       19.8548586823       -5.6627717329
 CU        24.2142853540       19.8544305692       -5.6608583505
 CU        26.7619850646       19.8541221536       -5.6594044535
 CU        29.3096402531       19.8538983368       -5.6583920218
 CU        31.8572547351       19.8537319301       -5.6577027909
 CU        34.4048230228       19.8536326921       -5.6573235813
 CU        36.9523542312       19.8536332838       -5.6573317793
 CU        39.4998769761       19.8537221388       -5.6577212608
 CU         0.0095979586       22.0603498321       -5.6579394780
 CU         2.5572098687       22.0605919391       -5.6587323925
 CU         5.1048319835       22.0610149895       -5.6600021387
 CU         7.6525155075       22.0616598821       -5.6618267155
 CU        10.2003507525       22.0623817762       -5.6638095362
 CU        12.7483488569       22.0628345596       -5.6651213791
 CU        15.2964060493       22.0628456224       -5.6652535596
 CU        17.8444087453       22.0624685073       -5.6642903050
 CU        20.3923130705       22.0618756698       -5.6627128345
 CU        22.9401316339       22.0612963238       -5.6611061552
 CU        25.4879045593       22.0608553937       -5.6598046954
 CU        28.0356480084       22.0605442947       -5.6588158122
 CU        30.5833541322       22.0603203899       -5.6580599556
 CU        33.1310120176       22.0601721952       -5.6575140050
 CU        35.6786256520       22.0601303385       -5.6572839005
 CU        38.2262222296       22.0602029161       -5.6574532372
 CU         1.2835743973       24.2669937079       -5.6580240475
 CU         3.8312209832       24.2673572737       -5.6588077327
 CU         6.3788720776       24.2679337335       -5.6600294119
 CU         8.9265926156       24.2686798259       -5.6616234899
 CU        11.4744458390       24.2693296972       -5.6630525384
 CU        14.0223909702       24.2695837340       -5.6636653782
 CU        16.5703351105       24.2693756197       -5.6633138309
 CU        19.1182235453       24.2688350160       -5.6622905587
 CU        21.6660509769       24.2681854288       -5.6610535521
 CU        24.2138416240       24.2676255316       -5.6599635353
 CU        26.7616191652       24.2672170560       -5.6590734192
 CU        29.3093801626       24.2669231234       -5.6583101290
 CU        31.8571073106       24.2667167236       -5.6576703048
 CU        34.4047961282       24.2666093017       -5.6572663821
 CU        36.9524674911       24.2666369966       -5.6572374127
 CU        39.5001395641       24.2667728096       -5.6575271016
 CU         0.0098493795       26.4733423403       -5.6574615141
 CU         2.5575351089       26.4736640557       -5.6579330802
 CU         5.1051963223       26.4741584798       -5.6587051566
 CU         7.6528709383       26.4748441060       -5.6598433186
 CU        10.2006228528       26.4755766512       -5.6611306389
 CU        12.7484674770       26.4760493360       -5.6620201240
 CU        15.2963501407       26.4760658094       -5.6621464744
 CU        17.8442119824       26.4756683929       -5.6616090681
 CU        20.3920324938       26.4750473379       -5.6607336076
 CU        22.9398165207       26.4744201044       -5.6598430317
 CU        25.4875879144       26.4739170719       -5.6590741911
 CU        28.0353623563       26.4735382839       -5.6583809288
 CU        30.5831328926       26.4732587760       -5.6577468315
 CU        33.1308887032       26.4730758673       -5.6572576959
 CU        35.6786286895       26.4730285127       -5.6570591041
 CU        38.2263614660       26.4731324905       -5.6571686055
 CU         1.2837585046       28.6799140022       -5.6572632012
 CU         3.8314513128       28.6803461579       -5.6577325243
 CU         6.3791291347       28.6809519226       -5.6584887493
 CU         8.9268353520       28.6816730712       -5.6594915491
 CU        11.4746093726       28.6822936005       -5.6604233218
 CU        14.0224353190       28.6825397297       -5.6608676979
 CU        16.5702664348       28.6823415326       -5.6607254117
 CU        19.1180723239       28.6818269820       -5.6601832464
 CU        21.6658453416       28.6811988978       -5.6594903848
 CU        24.2136003691       28.6806249151       -5.6588380002
 CU        26.7613624629       28.6801601888       -5.6582519701
 CU        29.3091409844       28.6797939192       -5.6577120397
 CU        31.8569331836       28.6795277700       -5.6572501315
 CU        34.4047244447       28.6793936642       -5.6569472748
 CU        36.9525014194       28.6794326756       -5.6568777351
 CU        39.5002597803       28.6796187402       -5.6570006976
 CU         0.0098819873       30.8860926694       -5.6567948275
 CU         2.5576074829       30.8864786376       -5.6570580889
 CU         5.1053076245       30.8870142671       -5.6575384858
 CU         7.6530117715       30.8876868260       -5.6582478883
 CU        10.2007571697       30.8883635076       -5.6590447868
 CU        12.7485566670       30.8888027646       -5.6596179906
 CU        15.2963756407       30.8888277441       -5.6597543975
 CU        17.8441780040       30.8884758468       -5.6595010849
 CU        20.3919477401       30.8879103958       -5.6590212393
 CU        22.9396924414       30.8873071837       -5.6584938910
 CU        25.4874357817       30.8867723897       -5.6580120267
 CU        28.0351977364       30.8863249277       -5.6575746111
 CU        30.5829825644       30.8859749832       -5.6571957819
 CU        33.1307818906       30.8857521611       -5.6568929415
 CU        35.6785756753       30.8857017086       -5.6567086826
 CU        38.2263541487       30.8858300380       -5.6566830518
 CU         1.2836760035       33.0925556063       -5.6566526795
 CU         3.8313974074       33.0930327164       -5.6569462354
 CU         6.3791114659       33.0936466482       -5.6574389866
 CU         8.9268548270       33.0943195625       -5.6580679984
 CU        11.4746528520       33.0948713107       -5.6586340910
 CU        14.0224902607       33.0951047562       -5.6589228241
 CU        16.5703211754       33.0949528059       -5.6588744213
 CU        19.1181139338       33.0945103844       -5.6585783633
 CU        21.6658663945       33.0939338453       -5.6581726759
 CU        24.2135978018       33.0933603839       -5.6577731578
 CU        26.7613335223       33.0928495953       -5.6574061206
 CU        29.3090845670       33.0924265394       -5.6570914751
 CU        31.8568519094       33.0921225211       -5.6568401967
 CU        34.4046260832       33.0919755574       -5.6566419781
 CU        36.9523973424       33.0920127736       -5.6565241049
 CU        39.5001606376       33.0922165566       -5.6565257221
 CU         0.0096817074       35.2985953077       -5.6564633165
 CU         2.5574141991       35.2990144522       -5.6566295500
 CU         5.1051437340       35.2995728736       -5.6569717776
 CU         7.6528958588       35.3002175504       -5.6574788753
 CU        10.2007005435       35.3008171297       -5.6580214857
 CU        12.7485595810       35.3011984601       -5.6583972452
 CU        15.2964385313       35.3012434209       -5.6584837544
 CU        17.8442903619       35.3009649990       -5.6583068099
 CU        20.3920898922       35.3004750283       -5.6579804366
 CU        22.9398380118       35.2999110254       -5.6576239354
 CU        25.4875573421       35.2993649300       -5.6572879914
 CU        28.0352674903       35.2988845675       -5.6570008887
 CU        30.5829811077       35.2985108683       -5.6567914114
 CU        33.1307034445       35.2982771406       -5.6566369996
 CU        35.6784336318       35.2982097838       -5.6565029279
 CU        38.2261711317       35.2983211506       -5.6564300531
 CU         1.2833524957       37.5049742097       -5.6565609181
 CU         3.8310906862       37.5054697675       -5.6567964342
 CU         6.3788643203       37.5060782406       -5.6572033243
 CU         8.9266933007       37.5066976065       -5.6577114085
 CU        11.4745828110       37.5071769158       -5.6581514082
 CU        14.0225104957       37.5073830275       -5.6583616405
 CU        16.5704359840       37.5072719926       -5.6582998841
 CU        19.1183163537       37.5069056409       -5.6580312857
 CU        21.6661261206       37.5064012505       -5.6576724942
 CU        24.2138670478       37.5058597755       -5.6573116746
 CU        26.7615563805       37.5053491764       -5.6570022327
 CU        29.3092146347       37.5049224649       -5.6567927526
 CU        31.8568625514       37.5046192286       -5.6566769192
 CU        34.4045132383       37.5044581911       -5.6565864117
 CU        36.9521782403       37.5044572106       -5.6564988646
 CU        39.4998671537       37.5046316889       -5.6564751456
 CU         1.2830762365        0.7309920157       -3.5972315295
 CU         3.8308611058        0.7314784626       -3.5975433786
 CU         6.3787228687        0.7320818157       -3.5979869398
 CU         8.9266376015        0.7326837500       -3.5984832892
 CU        11.4745855482        0.7331363195       -3.5988862850
 CU        14.0225448809        0.7333194131       -3.5990658841
 CU        16.5704908530        0.7332052399       -3.5989745783
 CU        19.1184009762        0.7328597854       -3.5986632836
 CU        21.6662541658        0.7323875772       -3.5982323946
 CU        24.2140326455        0.7318802493       -3.5977790120
 CU        26.7617315673        0.7314074247       -3.5973986333
 CU        29.3093570827        0.7310264671       -3.5971618226
 CU        31.8569242135        0.7307618023       -3.5970580516
 CU        34.4044607848        0.7306069956       -3.5970161785
 CU        36.9520084949        0.7305676326       -3.5970031557
 CU        39.4996131127        0.7306844788       -3.5970589159
 CU         0.0089364141        2.9371116379       -3.5975265646
 CU         2.5566132266        2.9374600858       -3.5979524941
 CU         5.1044457211        2.9379897583       -3.5984813719
 CU         7.6524069164        2.9386103287       -3.5990404850
 CU        10.2004481118        2.9391723555       -3.5995250359
 CU        12.7485236972        2.9395171793       -3.5998007145
 CU        15.2965914260        2.9395548971       -3.5997800087
 CU        17.8446171535        2.9393102386       -3.5994856045
 CU        20.3925688842        2.9388930146       -3.5990096747
 CU        22.9404194361        2.9384147110       -3.5984461456
 CU        25.4881599871        2.9379513793       -3.5979008071
 CU        28.0357909816        2.9375593835       -3.5974813541
 CU        30.5833206850        2.9372690735       -3.5972361935
 CU        33.1307727416        2.9370774879       -3.5971349008
 CU        35.6781903247        2.9369693511       -3.5971362699
 CU        38.2256326719        2.9369629027       -3.5972530434
 CU         1.2824656396        5.1435678703       -3.5983092460
 CU         3.8301344898        5.1439211360       -3.5991247457
 CU         6.3780239528        5.1444513217       -3.5999741156
 CU         8.9261084201        5.1450481715       -3.6007094899
 CU        11.4743152410        5.1455361317       -3.6011757924
 CU        14.0225572899        5.1457575273       -3.6012516245
 CU        16.5707591275        5.1456631082       -3.6009290303
 CU        19.1188552689        5.1453335563       -3.6003168891
 CU        21.6668058812        5.1448998482       -3.5995622695
 CU        24.2146072881        5.1444624715       -3.5987931126
 CU        26.7622682630        5.1440858268       -3.5981214363
 CU        29.3097954771        5.1438032468       -3.5976205338
 CU        31.8572051760        5.1436124688       -3.5973159702
 CU        34.4045419354        5.1434863550       -3.5972072461
 CU        36.9518589809        5.1434107388       -3.5973127852
 CU        39.4992181782        5.1434163209       -3.5976757048
 CU         0.0086207660        7.3499178512       -3.5983005661
 CU         2.5560729634        7.3500506820       -3.5994013052
 CU         5.1037431897        7.3503831254       -3.6007210317
 CU         7.6516887399        7.3508823896       -3.6020203438
 CU        10.1998998777        7.3514103077       -3.6030085328
 CU        12.7482842473        7.3517835795       -3.6034119164
 CU        15.2966917330        7.3518667753       -3.6031653831
 CU        17.8449865418        7.3516707512       -3.6023821452
 CU        20.3930963003        7.3513156492       -3.6013128218
 CU        22.9410047562        7.3509244772       -3.6001946561
 CU        25.4887251169        7.3505817913       -3.5991730389
 CU        28.0362733124        7.3503312398       -3.5983175970
 CU        30.5836754711        7.3501744914       -3.5976810401
 CU        33.1309831861        7.3500696447       -3.5973129381
 CU        35.6782489537        7.3499841575       -3.5972642947
 CU        38.2255213920        7.3499201344       -3.5975802077
 CU         1.2823820901        9.5564533882       -3.5991110971
 CU         3.8298468468        9.5565732107       -3.6007176159
 CU         6.3775433750        9.5568918653       -3.6026188037
 CU         8.9255476361        9.5573469072       -3.6044337840
 CU        11.4738610633        9.5577623250       -3.6056518775
 CU        14.0223698100        9.5579719893       -3.6058869280
 CU        16.5708486855        9.5579154534       -3.6051518097
 CU        19.1191503081        9.5576589358       -3.6037794908
 CU        21.6672231558        9.5573319014       -3.6021986061
 CU        24.2150489688        9.5570405092       -3.6006889491
 CU        26.7626475385        9.5568425144       -3.5993603506
 CU        29.3100693731        9.5567374864       -3.5982933913
 CU        31.8573919234        9.5566759846       -3.5975653025
 CU        34.4046767642        9.5566103112       -3.5972453547
 CU        36.9519582847        9.5565354488       -3.5973773816
 CU        39.4992600086        9.5564681413       -3.5979901671
 CU         0.0089056011       11.7630314269       -3.5985464918
 CU         2.5563142404       11.7630236605       -3.6000433198
 CU         5.1038320736       11.7631641792       -3.6021575853
 CU         7.6515839819       11.7634950708       -3.6046408320
 CU        10.1996498519       11.7639008199       -3.6068628767
 CU        12.7480071857       11.7641694889       -3.6080898678
 CU        15.2965117136       11.7641986609       -3.6079336058
 CU        17.8449329185       11.7640217540       -3.6065955453
 CU        20.3931510944       11.7637481325       -3.6046259033
 CU        22.9411054609       11.7635059041       -3.6025442479
 CU        25.4887930515       11.7633575775       -3.6006566771
 CU        28.0362744915       11.7633029500       -3.5991070314
 CU        30.5836573695       11.7632789205       -3.5979993748
 CU        33.1310196393       11.7632356290       -3.5973749143
 CU        35.6783848734       11.7631691764       -3.5972490463
 CU        38.2257554700       11.7630965363       -3.5976367137
 CU         1.2829240855       13.9696096516       -3.5991808230
 CU         3.8304210665       13.9696446098       -3.6010186532
 CU         6.3780228520       13.9698559103       -3.6035936932
 CU         8.9258414136       13.9702359984       -3.6064771767
 CU        11.4739278825       13.9705857084       -3.6087484955
 CU        14.0222396620       13.9706932937       -3.6095965075
 CU        16.5706056735       13.9705606383       -3.6088402777
 CU        19.1188478409       13.9703037996       -3.6068865689
 CU        21.6668733241       13.9700622462       -3.6044135792
 CU        24.2146560455       13.9699234429       -3.6020060163
 CU        26.7622395630       13.9698829096       -3.6000090200
 CU        29.3097361575       13.9698700248       -3.5985750806
 CU        31.8572198900       13.9698297465       -3.5976954253
 CU        34.4047087764       13.9697642114       -3.5973128112
 CU        36.9521981322       13.9697030325       -3.5974297561
 CU        39.4996780654       13.9696513830       -3.5980393096
 CU         0.0094713808       16.1762078454       -3.5984984426
 CU         2.5570560511       16.1762156353       -3.5998159973
 CU         5.1046562073       16.1763432268       -3.6019349400
 CU         7.6523368336       16.1766858227       -3.6047865671