#---------------------------------------------------------------------
# Usage (MD and Mean Squared Displacement (MSD)) (about 1 hour for 8 CPUs)
1. cd H2O_MD
2. bash run.sh

3. bash ./get_t_sigma.sh run-H2O-256-pos-1.xyz

4. ./../LIB_TOOLS/msd.x < msd.in
5. echo "plot 'msd-256.dat' using 1:2 with l; set xlabel 'Time / fs' ; set ylabel 'Mean squared displacement / Angstrom^2' ; pause mouse" |  gnuplot
6. echo "set format y'%.2e'; plot 'msd-256.dat' using 1:(\$2/(2*3)/\$1)*((1e-8*1e-8)/1e-15) with l; set xlabel 'Time, t / fs' ; set ylabel 'Diffusion coefficient, D / (cm^2/s)' ; pause mouse" |  gnuplot

Note:
  **** **** ******  **  PROGRAM STARTED AT               2024-08-12 15:51:18.778
  **** **** ******  **  PROGRAM ENDED AT                 2024-08-12 16:46:56.656
#---------------------------------------------------------------------
Diffusion constant, viscosity and size effects
https://www.cp2k.org/exercises:2014_uzh_molsim:h2o_diff

#---------------------------------------------------------------------
MSD = <[x(t)-x(0)]^2> = 2*n-dimension*D*t

For 3-dimensional Brownian motion,
i.e., n-dimension=3, and D = MSD/(6*t)

In this case, units are 
MSD [Angstrom^2]
t [fs]
D [Angstrom^2/fs] = 0.1 [cm^2/s] = 1.0e-5 [m^2/s]
#---------------------------------------------------------------------